
     Program PROJWFC v.7.0 starts on 13Jul2023 at 11:51:12 

     This program is part of the open-source Quantum ESPRESSO suite
     for quantum simulation of materials; please cite
         "P. Giannozzi et al., J. Phys.:Condens. Matter 21 395502 (2009);
         "P. Giannozzi et al., J. Phys.:Condens. Matter 29 465901 (2017);
         "P. Giannozzi et al., J. Chem. Phys. 152 154105 (2020);
          URL http://www.quantum-espresso.org", 
     in publications or presentations arising from this work. More details at
     http://www.quantum-espresso.org/quote

     Parallel version (MPI & OpenMP), running on       2 processor cores
     Number of MPI processes:                 1
     Threads/MPI process:                     2

     MPI processes distributed on     1 nodes
     86883 MiB available memory on the printing compute node when the environment starts


     Reading xml data from directory:

     ./silicene_pdos.save/
     file Si.pbe-n-kjpaw_psl.1.0.0.UPF: wavefunction(s)  3S 3P renormalized

     IMPORTANT: XC functional enforced from input :
     Exchange-correlation= PBE
                           (   1   4   3   4   0   0   0)
     Any further DFT definition will be discarded
     Please, verify this is what you really want


     G-vector sticks info
     --------------------
     sticks:   dense  smooth     PW     G-vecs:    dense   smooth      PW
     Sum        1813     745    235               328517    83451   14669

     Using Slab Decomposition


     negative rho (up, down):  1.127E-05 0.000E+00

     Linear tetrahedron method (read from file) 
     [opt_tetra]  Linear tetrahedron method is used.

     Calling projwave .... 

     Subspace diagonalization in iterative solution of the eigenvalue problem:
     a serial algorithm will be used


  Problem Sizes 
  natomwfc =            8
  nbnd     =            8
  nkstot   =           43
  npwx     =        10447
  nkb      =           36


     Atomic states used for projection
     (read from pseudopotential files):

     state #   1: atom   1 (Si ), wfc  1 (l=0 m= 1)
     state #   2: atom   1 (Si ), wfc  2 (l=1 m= 1)
     state #   3: atom   1 (Si ), wfc  2 (l=1 m= 2)
     state #   4: atom   1 (Si ), wfc  2 (l=1 m= 3)
     state #   5: atom   2 (Si ), wfc  1 (l=0 m= 1)
     state #   6: atom   2 (Si ), wfc  2 (l=1 m= 1)
     state #   7: atom   2 (Si ), wfc  2 (l=1 m= 2)
     state #   8: atom   2 (Si ), wfc  2 (l=1 m= 3)

 k =   0.0000000000  0.0000000000  0.0000000000
==== e(   1) =   -14.01092 eV ==== 
     psi = 0.485*[#   1]+0.485*[#   5]+0.012*[#   2]+0.012*[#   6]
    |psi|^2 = 0.993
==== e(   2) =    -6.05221 eV ==== 
     psi = 0.038*[#   1]+0.038*[#   5]
    |psi|^2 = 0.077
==== e(   3) =    -4.16588 eV ==== 
     psi = 0.489*[#   4]+0.489*[#   8]+0.450*[#   2]+0.450*[#   6]
    |psi|^2 = 1.878
==== e(   4) =    -4.16577 eV ==== 
     psi = 0.489*[#   3]+0.489*[#   7]
    |psi|^2 = 0.979
==== e(   5) =    -0.98593 eV ==== 
     psi = 0.447*[#   1]+0.447*[#   5]+0.033*[#   2]+0.033*[#   6]
    |psi|^2 = 0.960
==== e(   6) =    -0.27455 eV ==== 
     psi = 0.011*[#   1]+0.011*[#   5]
    |psi|^2 = 0.023
==== e(   7) =     0.08337 eV ==== 
     psi = 0.453*[#   4]+0.453*[#   8]+0.216*[#   2]+0.216*[#   6]
    |psi|^2 = 1.338
==== e(   8) =     0.08370 eV ==== 
     psi = 0.453*[#   3]+0.453*[#   7]
    |psi|^2 = 0.906

 k =   0.0833333333  0.0481111560  0.0000000000
==== e(   1) =   -13.92968 eV ==== 
     psi = 0.467*[#   1]+0.467*[#   5]+0.013*[#   3]+0.013*[#   7]+0.011*[#   2]
          +0.011*[#   6]+0.004*[#   4]+0.004*[#   8]
    |psi|^2 = 0.993
==== e(   2) =    -5.99517 eV ==== 
     psi = 0.049*[#   1]+0.049*[#   5]+0.013*[#   2]+0.013*[#   6]+0.004*[#   3]
          +0.004*[#   7]+0.001*[#   4]+0.001*[#   8]
    |psi|^2 = 0.135
==== e(   3) =    -4.77144 eV ==== 
     psi = 0.435*[#   2]+0.435*[#   6]+0.315*[#   3]+0.315*[#   7]+0.105*[#   4]
          +0.105*[#   8]+0.051*[#   1]+0.051*[#   5]
    |psi|^2 = 1.812
==== e(   4) =    -4.31013 eV ==== 
     psi = 0.368*[#   4]+0.368*[#   8]+0.123*[#   3]+0.123*[#   7]+0.004*[#   2]
          +0.004*[#   6]
    |psi|^2 = 0.988
==== e(   5) =    -0.59271 eV ==== 
     psi = 0.325*[#   1]+0.325*[#   5]+0.093*[#   3]+0.093*[#   7]+0.031*[#   4]
          +0.031*[#   8]+0.024*[#   2]+0.024*[#   6]
    |psi|^2 = 0.946
==== e(   6) =    -0.21875 eV ==== 
     psi = 0.093*[#   2]+0.093*[#   6]+0.012*[#   1]+0.012*[#   5]
    |psi|^2 = 0.212
==== e(   7) =     0.17090 eV ==== 
     psi = 0.278*[#   3]+0.278*[#   7]+0.227*[#   2]+0.227*[#   6]+0.093*[#   4]
          +0.093*[#   8]+0.075*[#   1]+0.075*[#   5]
    |psi|^2 = 1.345
==== e(   8) =     0.38485 eV ==== 
     psi = 0.336*[#   4]+0.336*[#   8]+0.112*[#   3]+0.112*[#   7]
    |psi|^2 = 0.898

 k =   0.1666666667  0.0962223120  0.0000000000
==== e(   1) =   -13.68771 eV ==== 
     psi = 0.429*[#   1]+0.429*[#   5]+0.043*[#   3]+0.043*[#   7]+0.014*[#   4]
          +0.014*[#   8]+0.010*[#   2]+0.010*[#   6]
    |psi|^2 = 0.992
==== e(   2) =    -6.19404 eV ==== 
     psi = 0.180*[#   3]+0.180*[#   7]+0.159*[#   1]+0.159*[#   5]+0.060*[#   4]
          +0.060*[#   8]+0.043*[#   2]+0.043*[#   6]
    |psi|^2 = 0.884
==== e(   3) =    -5.55531 eV ==== 
     psi = 0.095*[#   2]+0.095*[#   6]+0.093*[#   3]+0.093*[#   7]+0.031*[#   4]
          +0.031*[#   8]+0.002*[#   1]+0.002*[#   5]
    |psi|^2 = 0.441
==== e(   4) =    -4.64131 eV ==== 
     psi = 0.369*[#   4]+0.369*[#   8]+0.180*[#   2]+0.180*[#   6]+0.123*[#   3]
          +0.123*[#   7]
    |psi|^2 = 1.344
==== e(   5) =    -0.77610 eV ==== 
     psi = 0.195*[#   3]+0.195*[#   7]+0.175*[#   1]+0.175*[#   5]+0.065*[#   4]
          +0.065*[#   8]+0.014*[#   2]+0.014*[#   6]
    |psi|^2 = 0.898
==== e(   6) =    -0.09159 eV ==== 
     psi = 0.195*[#   2]+0.195*[#   6]+0.010*[#   3]+0.010*[#   7]+0.008*[#   1]
          +0.008*[#   5]+0.003*[#   4]+0.003*[#   8]
    |psi|^2 = 0.432
==== e(   7) =     1.18203 eV ==== 
     psi = 0.326*[#   4]+0.326*[#   8]+0.276*[#   2]+0.276*[#   6]+0.109*[#   3]
          +0.109*[#   7]
    |psi|^2 = 1.423
==== e(   8) =     1.23759 eV ==== 
     psi = 0.194*[#   1]+0.194*[#   5]+0.175*[#   3]+0.175*[#   7]+0.059*[#   4]
          +0.059*[#   8]+0.010*[#   2]+0.010*[#   6]
    |psi|^2 = 0.876

 k =   0.2500000000  0.1443334680  0.0000000000
==== e(   1) =   -13.29150 eV ==== 
     psi = 0.389*[#   1]+0.389*[#   5]+0.074*[#   3]+0.074*[#   7]+0.025*[#   4]
          +0.025*[#   8]+0.008*[#   2]+0.008*[#   6]
    |psi|^2 = 0.991
==== e(   2) =    -7.37705 eV ==== 
     psi = 0.229*[#   3]+0.229*[#   7]+0.185*[#   1]+0.185*[#   5]+0.076*[#   4]
          +0.076*[#   8]+0.074*[#   2]+0.074*[#   6]
    |psi|^2 = 1.128
==== e(   3) =    -5.28286 eV ==== 
     psi = 0.018*[#   3]+0.018*[#   7]+0.012*[#   1]+0.012*[#   5]+0.006*[#   4]
          +0.006*[#   8]+0.004*[#   2]+0.004*[#   6]
    |psi|^2 = 0.082
==== e(   4) =    -5.00136 eV ==== 
     psi = 0.370*[#   4]+0.370*[#   8]+0.229*[#   2]+0.229*[#   6]+0.123*[#   3]
          +0.123*[#   7]
    |psi|^2 = 1.444
==== e(   5) =    -1.21171 eV ==== 
     psi = 0.189*[#   1]+0.189*[#   5]+0.177*[#   3]+0.177*[#   7]+0.059*[#   4]
          +0.059*[#   8]+0.017*[#   2]+0.017*[#   6]
    |psi|^2 = 0.884
==== e(   6) =    -0.18033 eV ==== 
     psi = 0.177*[#   2]+0.177*[#   6]+0.012*[#   1]+0.012*[#   5]+0.007*[#   3]
          +0.007*[#   7]+0.002*[#   4]+0.002*[#   8]
    |psi|^2 = 0.397
==== e(   7) =     1.46845 eV ==== 
     psi = 0.392*[#   2]+0.392*[#   6]+0.039*[#   3]+0.039*[#   7]+0.013*[#   1]
          +0.013*[#   4]+0.013*[#   5]+0.013*[#   8]
    |psi|^2 = 0.914
==== e(   8) =     2.28798 eV ==== 
     psi = 0.316*[#   4]+0.316*[#   8]+0.105*[#   3]+0.105*[#   7]+0.007*[#   2]
          +0.007*[#   6]
    |psi|^2 = 0.857

 k =   0.3333333333  0.1924446241  0.0000000000
==== e(   1) =   -12.75867 eV ==== 
     psi = 0.360*[#   1]+0.360*[#   5]+0.097*[#   3]+0.097*[#   7]+0.032*[#   4]
          +0.032*[#   8]+0.006*[#   2]+0.006*[#   6]
    |psi|^2 = 0.990
==== e(   2) =    -8.57564 eV ==== 
     psi = 0.219*[#   3]+0.219*[#   7]+0.201*[#   1]+0.201*[#   5]+0.097*[#   2]
          +0.097*[#   6]+0.073*[#   4]+0.073*[#   8]
    |psi|^2 = 1.181
==== e(   3) =    -5.29729 eV ==== 
     psi = 0.371*[#   4]+0.371*[#   8]+0.124*[#   3]+0.123*[#   7]
    |psi|^2 = 0.988
==== e(   4) =    -4.79029 eV ==== 
     psi = 0.219*[#   2]+0.219*[#   6]+0.021*[#   1]+0.021*[#   5]+0.014*[#   3]
          +0.014*[#   7]+0.005*[#   4]+0.005*[#   8]
    |psi|^2 = 0.516
==== e(   5) =    -1.59464 eV ==== 
     psi = 0.207*[#   1]+0.207*[#   5]+0.150*[#   3]+0.150*[#   7]+0.050*[#   4]
          +0.050*[#   8]+0.037*[#   2]+0.037*[#   6]
    |psi|^2 = 0.888
==== e(   6) =    -0.84860 eV ==== 
     psi = 0.150*[#   2]+0.150*[#   6]+0.022*[#   1]+0.022*[#   5]+0.013*[#   3]
          +0.013*[#   7]+0.004*[#   4]+0.004*[#   8]
    |psi|^2 = 0.378
==== e(   7) =     1.64789 eV ==== 
     psi = 0.412*[#   2]+0.412*[#   6]+0.034*[#   3]+0.034*[#   7]+0.011*[#   4]
          +0.011*[#   8]+0.005*[#   1]+0.005*[#   5]
    |psi|^2 = 0.925
==== e(   8) =     2.92522 eV ==== 
     psi = 0.013*[#   2]+0.013*[#   6]
    |psi|^2 = 0.026

 k =   0.4166666667  0.2405557801  0.0000000000
==== e(   1) =   -12.15079 eV ==== 
     psi = 0.346*[#   1]+0.346*[#   5]+0.109*[#   3]+0.109*[#   7]+0.036*[#   4]
          +0.036*[#   8]+0.004*[#   2]+0.004*[#   6]
    |psi|^2 = 0.990
==== e(   2) =    -9.59929 eV ==== 
     psi = 0.213*[#   3]+0.213*[#   7]+0.208*[#   1]+0.208*[#   5]+0.109*[#   2]
          +0.109*[#   6]+0.071*[#   4]+0.071*[#   8]
    |psi|^2 = 1.201
==== e(   3) =    -5.48655 eV ==== 
     psi = 0.371*[#   4]+0.371*[#   8]+0.124*[#   3]+0.124*[#   7]
    |psi|^2 = 0.989
==== e(   4) =    -4.22809 eV ==== 
     psi = 0.213*[#   2]+0.213*[#   6]+0.031*[#   1]+0.031*[#   5]+0.014*[#   3]
          +0.014*[#   7]+0.005*[#   4]+0.005*[#   8]
    |psi|^2 = 0.527
==== e(   5) =    -1.92676 eV ==== 
     psi = 0.217*[#   2]+0.217*[#   6]+0.133*[#   1]+0.133*[#   5]+0.084*[#   3]
          +0.084*[#   7]+0.028*[#   4]+0.028*[#   8]
    |psi|^2 = 0.925
==== e(   6) =    -1.59229 eV ==== 
     psi = 0.109*[#   1]+0.109*[#   5]+0.084*[#   2]+0.084*[#   6]+0.066*[#   3]
          +0.066*[#   7]+0.022*[#   4]+0.022*[#   8]
    |psi|^2 = 0.563
==== e(   7) =     2.23244 eV ==== 
     psi = 0.239*[#   2]+0.239*[#   6]+0.029*[#   3]+0.029*[#   7]+0.010*[#   4]
          +0.010*[#   8]+0.003*[#   1]+0.003*[#   5]
    |psi|^2 = 0.561
==== e(   8) =     3.66205 eV ==== 
     psi = 0.066*[#   2]+0.066*[#   6]+0.001*[#   3]+0.001*[#   7]
    |psi|^2 = 0.136

 k =  -0.5000000000 -0.2886669361  0.0000000000
==== e(   1) =   -11.77868 eV ==== 
     psi = 0.352*[#   1]+0.352*[#   5]+0.106*[#   3]+0.106*[#   7]+0.035*[#   4]
          +0.035*[#   8]+0.003*[#   2]+0.003*[#   6]
    |psi|^2 = 0.991
==== e(   2) =   -10.11209 eV ==== 
     psi = 0.218*[#   3]+0.218*[#   7]+0.200*[#   1]+0.200*[#   5]+0.106*[#   2]
          +0.106*[#   6]+0.073*[#   4]+0.073*[#   8]
    |psi|^2 = 1.192
==== e(   3) =    -5.55128 eV ==== 
     psi = 0.371*[#   4]+0.371*[#   8]+0.124*[#   3]+0.124*[#   7]
    |psi|^2 = 0.989
==== e(   4) =    -3.89713 eV ==== 
     psi = 0.218*[#   2]+0.218*[#   6]+0.041*[#   1]+0.041*[#   5]+0.016*[#   3]
          +0.016*[#   7]+0.005*[#   4]+0.005*[#   8]
    |psi|^2 = 0.561
==== e(   5) =    -2.24099 eV ==== 
     psi = 0.413*[#   2]+0.413*[#   6]+0.026*[#   1]+0.026*[#   5]+0.023*[#   3]
          +0.023*[#   7]+0.008*[#   4]+0.008*[#   8]
    |psi|^2 = 0.940
==== e(   6) =    -1.79826 eV ==== 
     psi = 0.215*[#   1]+0.215*[#   5]+0.122*[#   3]+0.122*[#   7]+0.041*[#   4]
          +0.041*[#   8]+0.023*[#   2]+0.023*[#   6]
    |psi|^2 = 0.801
==== e(   7) =     2.71648 eV ==== 
     psi = 0.053*[#   2]+0.053*[#   6]+0.026*[#   3]+0.026*[#   7]+0.009*[#   4]
          +0.009*[#   8]+0.002*[#   1]+0.002*[#   5]
    |psi|^2 = 0.179
==== e(   8) =     3.57001 eV ==== 
     psi = 0.122*[#   2]+0.122*[#   6]+0.007*[#   3]+0.007*[#   7]+0.002*[#   4]
          +0.002*[#   8]
    |psi|^2 = 0.262

 k =   0.1666666667  0.0000000000  0.0000000000
==== e(   1) =   -13.76802 eV ==== 
     psi = 0.440*[#   1]+0.440*[#   5]+0.046*[#   3]+0.046*[#   7]+0.010*[#   2]
          +0.010*[#   6]
    |psi|^2 = 0.992
==== e(   2) =    -5.99944 eV ==== 
     psi = 0.120*[#   1]+0.120*[#   5]+0.100*[#   3]+0.100*[#   7]+0.046*[#   2]
          +0.046*[#   6]+0.008*[#   4]+0.008*[#   8]
    |psi|^2 = 0.545
==== e(   3) =    -5.44607 eV ==== 
     psi = 0.266*[#   2]+0.266*[#   6]+0.250*[#   3]+0.250*[#   7]+0.029*[#   1]
          +0.029*[#   5]+0.017*[#   4]+0.017*[#   8]
    |psi|^2 = 1.125
==== e(   4) =    -4.61718 eV ==== 
     psi = 0.439*[#   4]+0.439*[#   8]+0.100*[#   2]+0.100*[#   6]+0.049*[#   3]
          +0.049*[#   7]+0.003*[#   1]+0.003*[#   5]
    |psi|^2 = 1.181
==== e(   5) =    -0.18064 eV ==== 
     psi = 0.250*[#   1]+0.250*[#   5]+0.163*[#   4]+0.163*[#   8]+0.039*[#   3]
          +0.039*[#   7]+0.019*[#   6]+0.019*[#   2]
    |psi|^2 = 0.940
==== e(   6) =    -0.15041 eV ==== 
     psi = 0.039*[#   2]+0.039*[#   6]+0.024*[#   5]+0.023*[#   1]+0.021*[#   3]
          +0.021*[#   7]+0.005*[#   4]+0.005*[#   8]
    |psi|^2 = 0.176
==== e(   7) =     0.03516 eV ==== 
     psi = 0.337*[#   3]+0.337*[#   7]+0.228*[#   2]+0.228*[#   6]+0.039*[#   4]
          +0.039*[#   8]+0.024*[#   1]+0.024*[#   5]
    |psi|^2 = 1.256
==== e(   8) =     1.36236 eV ==== 
     psi = 0.259*[#   4]+0.259*[#   8]+0.091*[#   3]+0.091*[#   7]+0.084*[#   1]
          +0.084*[#   5]+0.021*[#   2]+0.021*[#   6]
    |psi|^2 = 0.909

 k =   0.2500000000  0.0481111560  0.0000000000
==== e(   1) =   -13.44847 eV ==== 
     psi = 0.402*[#   1]+0.402*[#   5]+0.081*[#   3]+0.081*[#   7]+0.008*[#   2]
          +0.008*[#   6]+0.004*[#   4]+0.004*[#   8]
    |psi|^2 = 0.991
==== e(   2) =    -6.86958 eV ==== 
     psi = 0.257*[#   3]+0.257*[#   7]+0.183*[#   1]+0.183*[#   5]+0.081*[#   2]
          +0.081*[#   6]+0.042*[#   4]+0.042*[#   8]
    |psi|^2 = 1.127
==== e(   3) =    -5.41341 eV ==== 
     psi = 0.030*[#   3]+0.030*[#   7]+0.012*[#   2]+0.012*[#   6]+0.008*[#   4]
          +0.008*[#   8]+0.007*[#   1]+0.007*[#   5]
    |psi|^2 = 0.113
==== e(   4) =    -5.07099 eV ==== 
     psi = 0.389*[#   4]+0.389*[#   8]+0.257*[#   2]+0.257*[#   6]+0.093*[#   3]
          +0.093*[#   7]+0.008*[#   1]+0.008*[#   5]
    |psi|^2 = 1.494
==== e(   5) =    -0.51697 eV ==== 
     psi = 0.153*[#   3]+0.153*[#   7]+0.148*[#   1]+0.148*[#   5]+0.101*[#   4]
          +0.101*[#   8]+0.032*[#   2]+0.032*[#   6]
    |psi|^2 = 0.866
==== e(   6) =    -0.06550 eV ==== 
     psi = 0.153*[#   2]+0.153*[#   6]+0.019*[#   3]+0.019*[#   7]+0.017*[#   1]
          +0.017*[#   5]+0.014*[#   4]+0.014*[#   8]
    |psi|^2 = 0.404
==== e(   7) =     0.87071 eV ==== 
     psi = 0.326*[#   2]+0.326*[#   6]+0.165*[#   4]+0.165*[#   8]+0.154*[#   3]
          +0.154*[#   7]+0.107*[#   1]+0.107*[#   5]
    |psi|^2 = 1.506
==== e(   8) =     1.68024 eV ==== 
     psi = 0.019*[#   2]+0.019*[#   6]+0.012*[#   4]+0.012*[#   8]+0.004*[#   3]
          +0.004*[#   7]+0.002*[#   1]+0.002*[#   5]
    |psi|^2 = 0.072

 k =   0.3333333333  0.0962223120  0.0000000000
==== e(   1) =   -12.98138 eV ==== 
     psi = 0.369*[#   1]+0.369*[#   5]+0.108*[#   3]+0.108*[#   7]+0.012*[#   4]
          +0.012*[#   8]+0.006*[#   2]+0.006*[#   6]
    |psi|^2 = 0.991
==== e(   2) =    -8.03584 eV ==== 
     psi = 0.231*[#   3]+0.231*[#   7]+0.202*[#   1]+0.202*[#   5]+0.108*[#   2]
          +0.108*[#   6]+0.061*[#   4]+0.061*[#   8]
    |psi|^2 = 1.203
==== e(   3) =    -5.48140 eV ==== 
     psi = 0.364*[#   4]+0.364*[#   8]+0.112*[#   3]+0.112*[#   7]+0.014*[#   1]
          +0.014*[#   5]
    |psi|^2 = 0.981
==== e(   4) =    -4.98639 eV ==== 
     psi = 0.231*[#   2]+0.231*[#   6]+0.021*[#   3]+0.021*[#   7]+0.014*[#   1]
          +0.014*[#   5]+0.003*[#   4]+0.003*[#   8]
    |psi|^2 = 0.537
==== e(   5) =    -0.95323 eV ==== 
     psi = 0.162*[#   1]+0.162*[#   5]+0.123*[#   3]+0.123*[#   7]+0.089*[#   4]
          +0.089*[#   8]+0.070*[#   2]+0.070*[#   6]
    |psi|^2 = 0.886
==== e(   6) =    -0.44551 eV ==== 
     psi = 0.123*[#   2]+0.123*[#   6]+0.031*[#   1]+0.031*[#   5]+0.024*[#   3]
          +0.024*[#   7]+0.014*[#   4]+0.014*[#   8]
    |psi|^2 = 0.383
==== e(   7) =     1.53048 eV ==== 
     psi = 0.375*[#   2]+0.375*[#   6]+0.047*[#   3]+0.047*[#   7]+0.010*[#   1]
          +0.010*[#   5]+0.008*[#   4]+0.008*[#   8]
    |psi|^2 = 0.881
==== e(   8) =     2.15906 eV ==== 
     psi = 0.208*[#   4]+0.208*[#   8]+0.086*[#   3]+0.086*[#   7]+0.068*[#   1]
          +0.068*[#   5]+0.024*[#   2]+0.024*[#   6]
    |psi|^2 = 0.771

 k =   0.4166666667  0.1443334680  0.0000000000
==== e(   1) =   -12.39709 eV ==== 
     psi = 0.347*[#   1]+0.347*[#   5]+0.123*[#   3]+0.123*[#   7]+0.020*[#   4]
          +0.020*[#   8]+0.004*[#   2]+0.004*[#   6]
    |psi|^2 = 0.990
==== e(   2) =    -9.13301 eV ==== 
     psi = 0.214*[#   1]+0.214*[#   5]+0.209*[#   3]+0.209*[#   7]+0.123*[#   2]
          +0.123*[#   6]+0.071*[#   4]+0.071*[#   8]
    |psi|^2 = 1.232
==== e(   3) =    -5.76654 eV ==== 
     psi = 0.351*[#   4]+0.351*[#   8]+0.126*[#   3]+0.126*[#   7]+0.016*[#   1]
          +0.016*[#   5]
    |psi|^2 = 0.986
==== e(   4) =    -4.44041 eV ==== 
     psi = 0.209*[#   2]+0.209*[#   6]+0.021*[#   1]+0.021*[#   5]+0.017*[#   3]
          +0.017*[#   7]+0.002*[#   4]+0.002*[#   8]
    |psi|^2 = 0.497
==== e(   5) =    -1.48475 eV ==== 
     psi = 0.304*[#   2]+0.304*[#   6]+0.082*[#   1]+0.082*[#   5]+0.045*[#   3]
          +0.045*[#   7]+0.039*[#   4]+0.039*[#   8]
    |psi|^2 = 0.940
==== e(   6) =    -1.02124 eV ==== 
     psi = 0.133*[#   1]+0.133*[#   5]+0.090*[#   3]+0.090*[#   7]+0.051*[#   4]
          +0.051*[#   8]+0.045*[#   2]+0.045*[#   6]
    |psi|^2 = 0.639
==== e(   7) =     1.97251 eV ==== 
     psi = 0.147*[#   2]+0.147*[#   6]+0.030*[#   3]+0.030*[#   7]+0.013*[#   4]
          +0.013*[#   8]+0.003*[#   1]+0.003*[#   5]
    |psi|^2 = 0.387
==== e(   8) =     2.95569 eV ==== 
     psi = 0.126*[#   4]+0.126*[#   8]+0.090*[#   2]+0.090*[#   6]+0.045*[#   3]
          +0.045*[#   7]+0.004*[#   1]+0.004*[#   5]
    |psi|^2 = 0.530

 k =   0.5000000000  0.1924446241  0.0000000000
==== e(   1) =   -11.82865 eV ==== 
     psi = 0.344*[#   1]+0.344*[#   5]+0.117*[#   3]+0.117*[#   7]+0.031*[#   4]
          +0.031*[#   8]+0.003*[#   2]+0.003*[#   6]
    |psi|^2 = 0.991
==== e(   2) =    -9.96779 eV ==== 
     psi = 0.212*[#   1]+0.212*[#   5]+0.205*[#   3]+0.205*[#   7]+0.117*[#   2]
          +0.117*[#   6]+0.075*[#   4]+0.075*[#   8]
    |psi|^2 = 1.217
==== e(   3) =    -5.91322 eV ==== 
     psi = 0.345*[#   4]+0.345*[#   8]+0.132*[#   3]+0.132*[#   7]+0.017*[#   1]
          +0.017*[#   5]
    |psi|^2 = 0.987
==== e(   4) =    -3.91625 eV ==== 
     psi = 0.205*[#   2]+0.205*[#   6]+0.029*[#   1]+0.029*[#   5]+0.015*[#   3]
          +0.015*[#   7]+0.005*[#   4]+0.005*[#   8]
    |psi|^2 = 0.506
==== e(   5) =    -2.12719 eV ==== 
     psi = 0.410*[#   2]+0.410*[#   6]+0.030*[#   1]+0.030*[#   5]+0.020*[#   3]
          +0.020*[#   7]+0.013*[#   4]+0.013*[#   8]
    |psi|^2 = 0.946
==== e(   6) =    -1.24707 eV ==== 
     psi = 0.192*[#   1]+0.192*[#   5]+0.117*[#   3]+0.117*[#   7]+0.065*[#   4]
          +0.065*[#   8]+0.020*[#   2]+0.020*[#   6]
    |psi|^2 = 0.787
==== e(   7) =     2.47207 eV ==== 
     psi = 0.046*[#   2]+0.046*[#   6]+0.043*[#   4]+0.043*[#   8]+0.034*[#   3]
          +0.034*[#   7]+0.001*[#   1]+0.001*[#   5]
    |psi|^2 = 0.247
==== e(   8) =     3.14233 eV ==== 
     psi = 0.117*[#   2]+0.117*[#   6]+0.063*[#   4]+0.063*[#   8]+0.040*[#   3]
          +0.040*[#   7]
    |psi|^2 = 0.441

 k =  -0.4166666667 -0.3367780921  0.0000000000
==== e(   1) =   -11.82868 eV ==== 
     psi = 0.344*[#   1]+0.344*[#   5]+0.097*[#   3]+0.097*[#   7]+0.051*[#   4]
          +0.051*[#   8]+0.003*[#   2]+0.003*[#   6]
    |psi|^2 = 0.991
==== e(   2) =    -9.96776 eV ==== 
     psi = 0.212*[#   1]+0.212*[#   5]+0.211*[#   3]+0.211*[#   7]+0.097*[#   2]
          +0.097*[#   6]+0.068*[#   4]+0.068*[#   8]
    |psi|^2 = 1.177
==== e(   3) =    -5.91324 eV ==== 
     psi = 0.339*[#   4]+0.339*[#   8]+0.137*[#   3]+0.137*[#   7]+0.017*[#   1]
          +0.017*[#   5]
    |psi|^2 = 0.987
==== e(   4) =    -3.91627 eV ==== 
     psi = 0.211*[#   2]+0.211*[#   6]+0.029*[#   1]+0.029*[#   5]+0.010*[#   4]
          +0.010*[#   8]+0.009*[#   3]+0.009*[#   7]
    |psi|^2 = 0.519
==== e(   5) =    -2.12718 eV ==== 
     psi = 0.410*[#   2]+0.410*[#   6]+0.030*[#   1]+0.030*[#   5]+0.029*[#   3]
          +0.029*[#   7]+0.004*[#   4]+0.004*[#   8]
    |psi|^2 = 0.946
==== e(   6) =    -1.24705 eV ==== 
     psi = 0.192*[#   1]+0.192*[#   5]+0.121*[#   3]+0.121*[#   7]+0.061*[#   4]
          +0.061*[#   8]+0.029*[#   2]+0.029*[#   6]
    |psi|^2 = 0.804
==== e(   7) =     2.47203 eV ==== 
     psi = 0.047*[#   3]+0.047*[#   7]+0.046*[#   2]+0.046*[#   6]+0.029*[#   4]
          +0.029*[#   8]+0.001*[#   1]+0.001*[#   5]
    |psi|^2 = 0.247
==== e(   8) =     3.14234 eV ==== 
     psi = 0.121*[#   2]+0.121*[#   6]+0.089*[#   4]+0.089*[#   8]+0.015*[#   3]
          +0.015*[#   7]
    |psi|^2 = 0.449

 k =  -0.3333333333 -0.2886669361  0.0000000000
==== e(   1) =   -12.39712 eV ==== 
     psi = 0.347*[#   1]+0.347*[#   5]+0.085*[#   3]+0.085*[#   7]+0.059*[#   4]
          +0.059*[#   8]+0.004*[#   2]+0.004*[#   6]
    |psi|^2 = 0.990
==== e(   2) =    -9.13296 eV ==== 
     psi = 0.214*[#   1]+0.214*[#   5]+0.204*[#   3]+0.204*[#   7]+0.085*[#   2]
          +0.085*[#   6]+0.076*[#   4]+0.075*[#   8]
    |psi|^2 = 1.156
==== e(   3) =    -5.76659 eV ==== 
     psi = 0.330*[#   4]+0.330*[#   8]+0.147*[#   3]+0.147*[#   7]+0.016*[#   1]
          +0.016*[#   5]
    |psi|^2 = 0.986
==== e(   4) =    -4.44043 eV ==== 
     psi = 0.204*[#   2]+0.204*[#   6]+0.021*[#   1]+0.021*[#   5]+0.012*[#   4]
          +0.012*[#   8]+0.007*[#   3]+0.007*[#   7]
    |psi|^2 = 0.487
==== e(   5) =    -1.48473 eV ==== 
     psi = 0.304*[#   2]+0.304*[#   6]+0.082*[#   1]+0.082*[#   5]+0.070*[#   3]
          +0.070*[#   7]+0.014*[#   4]+0.014*[#   8]
    |psi|^2 = 0.940
==== e(   6) =    -1.02117 eV ==== 
     psi = 0.133*[#   1]+0.133*[#   5]+0.097*[#   3]+0.097*[#   7]+0.070*[#   2]
          +0.070*[#   6]+0.045*[#   4]+0.045*[#   8]
    |psi|^2 = 0.689
==== e(   7) =     1.97248 eV ==== 
     psi = 0.147*[#   2]+0.147*[#   6]+0.034*[#   3]+0.034*[#   7]+0.009*[#   4]
          +0.009*[#   8]+0.003*[#   1]+0.003*[#   5]
    |psi|^2 = 0.387
==== e(   8) =     2.95571 eV ==== 
     psi = 0.129*[#   4]+0.129*[#   8]+0.097*[#   2]+0.097*[#   6]+0.042*[#   3]
          +0.041*[#   7]+0.004*[#   1]+0.004*[#   5]
    |psi|^2 = 0.543

 k =  -0.2500000000 -0.2405557801  0.0000000000
==== e(   1) =   -12.98141 eV ==== 
     psi = 0.369*[#   1]+0.369*[#   5]+0.064*[#   3]+0.064*[#   7]+0.056*[#   4]
          +0.056*[#   8]+0.006*[#   2]+0.006*[#   6]
    |psi|^2 = 0.991
==== e(   2) =    -8.03579 eV ==== 
     psi = 0.202*[#   1]+0.202*[#   5]+0.193*[#   3]+0.193*[#   7]+0.099*[#   4]
          +0.099*[#   8]+0.064*[#   2]+0.064*[#   6]
    |psi|^2 = 1.113
==== e(   3) =    -5.48147 eV ==== 
     psi = 0.303*[#   4]+0.303*[#   8]+0.173*[#   3]+0.173*[#   7]+0.014*[#   1]
          +0.014*[#   5]
    |psi|^2 = 0.981
==== e(   4) =    -4.98641 eV ==== 
     psi = 0.193*[#   2]+0.193*[#   6]+0.020*[#   4]+0.020*[#   8]+0.014*[#   1]
          +0.014*[#   5]+0.005*[#   3]+0.005*[#   7]
    |psi|^2 = 0.461
==== e(   5) =    -0.95317 eV ==== 
     psi = 0.162*[#   1]+0.162*[#   5]+0.162*[#   3]+0.162*[#   7]+0.070*[#   2]
          +0.070*[#   6]+0.050*[#   4]+0.050*[#   8]
    |psi|^2 = 0.886
==== e(   6) =    -0.44546 eV ==== 
     psi = 0.162*[#   2]+0.162*[#   6]+0.031*[#   1]+0.031*[#   5]+0.028*[#   3]
          +0.028*[#   7]+0.010*[#   4]+0.010*[#   8]
    |psi|^2 = 0.461
==== e(   7) =     1.53049 eV ==== 
     psi = 0.375*[#   2]+0.375*[#   6]+0.028*[#   3]+0.028*[#   7]+0.027*[#   4]
          +0.027*[#   8]+0.010*[#   1]+0.010*[#   5]
    |psi|^2 = 0.881
==== e(   8) =     2.15955 eV ==== 
     psi = 0.197*[#   4]+0.197*[#   8]+0.097*[#   3]+0.097*[#   7]+0.068*[#   1]
          +0.068*[#   5]+0.028*[#   2]+0.028*[#   6]
    |psi|^2 = 0.778

 k =  -0.1666666667 -0.1924446241  0.0000000000
==== e(   1) =   -13.44849 eV ==== 
     psi = 0.402*[#   1]+0.402*[#   5]+0.048*[#   4]+0.048*[#   8]+0.037*[#   3]
          +0.037*[#   7]+0.008*[#   2]+0.008*[#   6]
    |psi|^2 = 0.991
==== e(   2) =    -6.86955 eV ==== 
     psi = 0.183*[#   1]+0.183*[#   5]+0.159*[#   3]+0.159*[#   7]+0.140*[#   4]
          +0.140*[#   8]+0.037*[#   2]+0.037*[#   6]
    |psi|^2 = 1.039
==== e(   3) =    -5.41342 eV ==== 
     psi = 0.027*[#   3]+0.027*[#   7]+0.012*[#   2]+0.012*[#   6]+0.011*[#   4]
          +0.011*[#   8]+0.007*[#   1]+0.007*[#   5]
    |psi|^2 = 0.113
==== e(   4) =    -5.07106 eV ==== 
     psi = 0.271*[#   4]+0.271*[#   8]+0.211*[#   3]+0.211*[#   7]+0.159*[#   2]
          +0.159*[#   6]+0.008*[#   1]+0.008*[#   5]
    |psi|^2 = 1.298
==== e(   5) =    -0.51688 eV ==== 
     psi = 0.191*[#   3]+0.191*[#   7]+0.148*[#   1]+0.148*[#   5]+0.062*[#   4]
          +0.062*[#   8]+0.032*[#   2]+0.032*[#   6]
    |psi|^2 = 0.866
==== e(   6) =    -0.06547 eV ==== 
     psi = 0.191*[#   2]+0.191*[#   6]+0.027*[#   3]+0.027*[#   7]+0.017*[#   1]
          +0.017*[#   5]+0.005*[#   4]+0.005*[#   8]
    |psi|^2 = 0.482
==== e(   7) =     0.87113 eV ==== 
     psi = 0.326*[#   2]+0.326*[#   6]+0.237*[#   4]+0.237*[#   8]+0.107*[#   1]
          +0.107*[#   5]+0.083*[#   3]+0.083*[#   7]
    |psi|^2 = 1.506
==== e(   8) =     1.68025 eV ==== 
     psi = 0.027*[#   2]+0.027*[#   6]+0.015*[#   3]+0.015*[#   7]+0.002*[#   1]
          +0.002*[#   5]+0.001*[#   4]+0.001*[#   8]
    |psi|^2 = 0.090

 k =  -0.0833333333 -0.1443334680  0.0000000000
==== e(   1) =   -13.76804 eV ==== 
     psi = 0.440*[#   1]+0.440*[#   5]+0.034*[#   4]+0.034*[#   8]+0.012*[#   3]
          +0.012*[#   7]+0.010*[#   2]+0.010*[#   6]
    |psi|^2 = 0.992
==== e(   2) =    -5.99947 eV ==== 
     psi = 0.120*[#   1]+0.120*[#   5]+0.077*[#   4]+0.077*[#   8]+0.031*[#   3]
          +0.031*[#   7]+0.012*[#   2]+0.012*[#   6]
    |psi|^2 = 0.477
==== e(   3) =    -5.44609 eV ==== 
     psi = 0.266*[#   2]+0.266*[#   6]+0.192*[#   4]+0.192*[#   8]+0.076*[#   3]
          +0.076*[#   7]+0.029*[#   1]+0.029*[#   5]
    |psi|^2 = 1.125
==== e(   4) =    -4.61717 eV ==== 
     psi = 0.342*[#   3]+0.342*[#   7]+0.146*[#   4]+0.146*[#   8]+0.031*[#   2]
          +0.031*[#   6]+0.003*[#   1]+0.003*[#   5]
    |psi|^2 = 1.043
==== e(   5) =    -0.18019 eV ==== 
     psi = 0.250*[#   1]+0.250*[#   5]+0.132*[#   3]+0.132*[#   7]+0.069*[#   4]
          +0.069*[#   8]+0.019*[#   6]+0.019*[#   2]
    |psi|^2 = 0.940
==== e(   6) =    -0.15045 eV ==== 
     psi = 0.132*[#   2]+0.132*[#   6]+0.024*[#   5]+0.023*[#   1]+0.017*[#   4]
          +0.017*[#   8]+0.009*[#   3]+0.009*[#   7]
    |psi|^2 = 0.362
==== e(   7) =     0.03514 eV ==== 
     psi = 0.263*[#   4]+0.263*[#   8]+0.228*[#   2]+0.228*[#   6]+0.114*[#   3]
          +0.114*[#   7]+0.024*[#   1]+0.024*[#   5]
    |psi|^2 = 1.256
==== e(   8) =     1.36209 eV ==== 
     psi = 0.217*[#   3]+0.217*[#   7]+0.133*[#   4]+0.133*[#   8]+0.084*[#   1]
          +0.084*[#   5]+0.009*[#   2]+0.009*[#   6]
    |psi|^2 = 0.886

 k =  -0.0000000000 -0.0962223120  0.0000000000
==== e(   1) =   -13.92968 eV ==== 
     psi = 0.467*[#   1]+0.467*[#   5]+0.018*[#   4]+0.018*[#   8]+0.011*[#   2]
          +0.011*[#   6]
    |psi|^2 = 0.993
==== e(   2) =    -5.99517 eV ==== 
     psi = 0.049*[#   1]+0.049*[#   5]+0.005*[#   4]+0.005*[#   8]
    |psi|^2 = 0.108
==== e(   3) =    -4.77154 eV ==== 
     psi = 0.435*[#   2]+0.435*[#   6]+0.420*[#   4]+0.420*[#   8]+0.051*[#   1]
          +0.051*[#   5]
    |psi|^2 = 1.812
==== e(   4) =    -4.31003 eV ==== 
     psi = 0.490*[#   3]+0.490*[#   7]
    |psi|^2 = 0.980
==== e(   5) =    -0.59248 eV ==== 
     psi = 0.325*[#   1]+0.325*[#   5]+0.124*[#   4]+0.124*[#   8]+0.024*[#   2]
          +0.024*[#   6]
    |psi|^2 = 0.946
==== e(   6) =    -0.21876 eV ==== 
     psi = 0.012*[#   1]+0.012*[#   5]+0.001*[#   4]+0.001*[#   8]
    |psi|^2 = 0.026
==== e(   7) =     0.17051 eV ==== 
     psi = 0.371*[#   4]+0.371*[#   8]+0.227*[#   2]+0.227*[#   6]+0.075*[#   1]
          +0.075*[#   5]
    |psi|^2 = 1.345
==== e(   8) =     0.38507 eV ==== 
     psi = 0.448*[#   3]+0.448*[#   7]
    |psi|^2 = 0.896

 k =   0.3333333333  0.0000000000  0.0000000000
==== e(   1) =   -13.05648 eV ==== 
     psi = 0.372*[#   1]+0.372*[#   5]+0.113*[#   3]+0.113*[#   7]+0.007*[#   2]
          +0.007*[#   6]+0.004*[#   4]+0.004*[#   8]
    |psi|^2 = 0.991
==== e(   2) =    -7.76290 eV ==== 
     psi = 0.240*[#   3]+0.240*[#   7]+0.209*[#   1]+0.209*[#   5]+0.113*[#   2]
          +0.113*[#   6]+0.044*[#   4]+0.044*[#   8]
    |psi|^2 = 1.211
==== e(   3) =    -5.71288 eV ==== 
     psi = 0.368*[#   4]+0.368*[#   8]+0.108*[#   3]+0.108*[#   7]+0.016*[#   1]
          +0.016*[#   5]+0.002*[#   2]+0.002*[#   6]
    |psi|^2 = 0.987
==== e(   4) =    -5.05381 eV ==== 
     psi = 0.240*[#   2]+0.240*[#   6]+0.019*[#   3]+0.019*[#   7]+0.012*[#   1]
          +0.012*[#   5]+0.002*[#   4]+0.002*[#   8]
    |psi|^2 = 0.547
==== e(   5) =    -0.45907 eV ==== 
     psi = 0.383*[#   2]+0.383*[#   6]+0.034*[#   1]+0.034*[#   5]+0.019*[#   3]
          +0.019*[#   7]+0.014*[#   4]+0.014*[#   8]
    |psi|^2 = 0.903
==== e(   6) =     0.45373 eV ==== 
     psi = 0.202*[#   3]+0.202*[#   7]+0.080*[#   4]+0.080*[#   8]+0.056*[#   1]
          +0.056*[#   5]+0.019*[#   2]+0.019*[#   6]
    |psi|^2 = 0.712
==== e(   7) =     0.62785 eV ==== 
     psi = 0.216*[#   4]+0.216*[#   8]+0.186*[#   1]+0.186*[#   5]+0.050*[#   2]
          +0.050*[#   6]+0.039*[#   3]+0.039*[#   7]
    |psi|^2 = 0.982
==== e(   8) =     1.59416 eV ==== 
     psi = 0.202*[#   2]+0.202*[#   6]+0.012*[#   3]+0.012*[#   7]
    |psi|^2 = 0.430

 k =   0.4166666667  0.0481111560  0.0000000000
==== e(   1) =   -12.52761 eV ==== 
     psi = 0.347*[#   1]+0.347*[#   5]+0.132*[#   3]+0.132*[#   7]+0.011*[#   4]
          +0.011*[#   8]+0.005*[#   2]+0.005*[#   6]
    |psi|^2 = 0.990
==== e(   2) =    -8.73775 eV ==== 
     psi = 0.229*[#   1]+0.229*[#   5]+0.207*[#   3]+0.207*[#   7]+0.132*[#   2]
          +0.132*[#   6]+0.059*[#   4]+0.059*[#   8]
    |psi|^2 = 1.253
==== e(   3) =    -6.22927 eV ==== 
     psi = 0.344*[#   4]+0.344*[#   8]+0.129*[#   3]+0.129*[#   7]+0.019*[#   1]
          +0.019*[#   5]
    |psi|^2 = 0.984
==== e(   4) =    -4.55392 eV ==== 
     psi = 0.207*[#   2]+0.207*[#   6]+0.016*[#   3]+0.016*[#   7]+0.016*[#   1]
          +0.016*[#   5]+0.002*[#   4]+0.002*[#   8]
    |psi|^2 = 0.482
==== e(   5) =    -1.11240 eV ==== 
     psi = 0.418*[#   2]+0.418*[#   6]+0.031*[#   1]+0.031*[#   5]+0.014*[#   3]
          +0.014*[#   7]+0.013*[#   4]+0.013*[#   8]
    |psi|^2 = 0.953
==== e(   6) =     0.22764 eV ==== 
     psi = 0.133*[#   1]+0.133*[#   5]+0.113*[#   4]+0.113*[#   8]+0.111*[#   3]
          +0.111*[#   7]+0.014*[#   2]+0.014*[#   6]
    |psi|^2 = 0.742
==== e(   7) =     1.81855 eV ==== 
     psi = 0.161*[#   4]+0.161*[#   8]+0.096*[#   1]+0.096*[#   5]+0.096*[#   3]
          +0.096*[#   7]+0.037*[#   2]+0.037*[#   6]
    |psi|^2 = 0.781
==== e(   8) =     1.92668 eV ==== 
     psi = 0.111*[#   2]+0.111*[#   6]+0.039*[#   4]+0.039*[#   8]+0.004*[#   1]
          +0.004*[#   5]+0.004*[#   3]+0.004*[#   7]
    |psi|^2 = 0.316

 k =   0.5000000000  0.0962223120  0.0000000000
==== e(   1) =   -11.91485 eV ==== 
     psi = 0.333*[#   1]+0.333*[#   5]+0.135*[#   3]+0.135*[#   7]+0.024*[#   4]
          +0.024*[#   8]+0.003*[#   2]+0.003*[#   6]
    |psi|^2 = 0.990
==== e(   2) =    -9.65714 eV ==== 
     psi = 0.238*[#   1]+0.238*[#   5]+0.182*[#   3]+0.182*[#   7]+0.135*[#   2]
          +0.135*[#   6]+0.074*[#   4]+0.074*[#   8]
    |psi|^2 = 1.256
==== e(   3) =    -6.53822 eV ==== 
     psi = 0.326*[#   4]+0.326*[#   8]+0.145*[#   3]+0.145*[#   7]+0.021*[#   1]
          +0.021*[#   5]
    |psi|^2 = 0.985
==== e(   4) =    -3.97590 eV ==== 
     psi = 0.182*[#   2]+0.182*[#   6]+0.020*[#   1]+0.020*[#   5]+0.015*[#   3]
          +0.015*[#   7]+0.003*[#   4]+0.003*[#   8]
    |psi|^2 = 0.440
==== e(   5) =    -1.87038 eV ==== 
     psi = 0.427*[#   2]+0.427*[#   6]+0.027*[#   1]+0.027*[#   5]+0.013*[#   3]
          +0.013*[#   7]+0.012*[#   4]+0.012*[#   8]
    |psi|^2 = 0.959
==== e(   6) =     0.02151 eV ==== 
     psi = 0.156*[#   1]+0.156*[#   5]+0.104*[#   3]+0.104*[#   7]+0.097*[#   4]
          +0.097*[#   8]+0.013*[#   2]+0.013*[#   6]
    |psi|^2 = 0.740
==== e(   7) =     1.99102 eV ==== 
     psi = 0.102*[#   4]+0.102*[#   8]+0.053*[#   3]+0.053*[#   7]+0.030*[#   2]
          +0.030*[#   6]
    |psi|^2 = 0.370
==== e(   8) =     2.65042 eV ==== 
     psi = 0.104*[#   2]+0.104*[#   6]+0.028*[#   3]+0.028*[#   7]+0.020*[#   4]
          +0.020*[#   8]+0.003*[#   1]+0.003*[#   5]
    |psi|^2 = 0.308

 k =   0.5833333333  0.1443334680  0.0000000000
==== e(   1) =   -11.51942 eV ==== 
     psi = 0.335*[#   1]+0.335*[#   5]+0.103*[#   3]+0.103*[#   7]+0.055*[#   4]
          +0.055*[#   8]+0.002*[#   2]+0.002*[#   6]
    |psi|^2 = 0.991
==== e(   2) =   -10.16116 eV ==== 
     psi = 0.233*[#   1]+0.233*[#   5]+0.187*[#   3]+0.187*[#   7]+0.103*[#   2]
          +0.103*[#   6]+0.072*[#   4]+0.072*[#   8]
    |psi|^2 = 1.190
==== e(   3) =    -6.63978 eV ==== 
     psi = 0.309*[#   4]+0.309*[#   8]+0.161*[#   3]+0.161*[#   7]+0.022*[#   1]
          +0.022*[#   5]
    |psi|^2 = 0.986
==== e(   4) =    -3.61013 eV ==== 
     psi = 0.187*[#   2]+0.187*[#   6]+0.023*[#   1]+0.023*[#   5]+0.009*[#   3]
          +0.009*[#   7]+0.008*[#   4]+0.008*[#   8]
    |psi|^2 = 0.453
==== e(   5) =    -2.30879 eV ==== 
     psi = 0.429*[#   2]+0.429*[#   6]+0.024*[#   1]+0.024*[#   5]+0.019*[#   3]
          +0.019*[#   7]+0.007*[#   4]+0.007*[#   8]
    |psi|^2 = 0.958
==== e(   6) =    -0.05060 eV ==== 
     psi = 0.164*[#   1]+0.164*[#   5]+0.111*[#   3]+0.111*[#   7]+0.082*[#   4]
          +0.082*[#   8]+0.019*[#   2]+0.019*[#   6]
    |psi|^2 = 0.752
==== e(   7) =     1.89472 eV ==== 
     psi = 0.096*[#   4]+0.096*[#   8]+0.068*[#   3]+0.068*[#   7]+0.027*[#   2]
          +0.027*[#   6]
    |psi|^2 = 0.383
==== e(   8) =     3.27102 eV ==== 
     psi = 0.111*[#   2]+0.111*[#   6]+0.009*[#   4]+0.009*[#   8]+0.004*[#   3]
          +0.004*[#   7]
    |psi|^2 = 0.247

 k =  -0.3333333333 -0.3848892481  0.0000000000
==== e(   1) =   -11.91492 eV ==== 
     psi = 0.333*[#   1]+0.333*[#   5]+0.082*[#   4]+0.082*[#   8]+0.077*[#   3]
          +0.077*[#   7]+0.003*[#   2]+0.003*[#   6]
    |psi|^2 = 0.990
==== e(   2) =    -9.65705 eV ==== 
     psi = 0.238*[#   1]+0.238*[#   5]+0.176*[#   3]+0.176*[#   7]+0.079*[#   4]
          +0.079*[#   8]+0.077*[#   2]+0.077*[#   6]
    |psi|^2 = 1.140
==== e(   3) =    -6.53826 eV ==== 
     psi = 0.286*[#   4]+0.286*[#   8]+0.185*[#   3]+0.185*[#   7]+0.021*[#   1]
          +0.021*[#   5]
    |psi|^2 = 0.985
==== e(   4) =    -3.97595 eV ==== 
     psi = 0.176*[#   2]+0.176*[#   6]+0.020*[#   1]+0.020*[#   5]+0.012*[#   4]
          +0.012*[#   8]+0.005*[#   3]+0.005*[#   7]
    |psi|^2 = 0.428
==== e(   5) =    -1.87033 eV ==== 
     psi = 0.427*[#   2]+0.427*[#   6]+0.027*[#   1]+0.027*[#   5]+0.022*[#   3]
          +0.022*[#   7]+0.004*[#   4]+0.004*[#   8]
    |psi|^2 = 0.959
==== e(   6) =     0.02157 eV ==== 
     psi = 0.156*[#   1]+0.156*[#   5]+0.129*[#   3]+0.129*[#   7]+0.072*[#   4]
          +0.072*[#   8]+0.022*[#   2]+0.022*[#   6]
    |psi|^2 = 0.756
==== e(   7) =     1.99099 eV ==== 
     psi = 0.080*[#   4]+0.080*[#   8]+0.075*[#   3]+0.075*[#   7]+0.030*[#   2]
          +0.030*[#   6]
    |psi|^2 = 0.370
==== e(   8) =     2.65038 eV ==== 
     psi = 0.129*[#   2]+0.129*[#   6]+0.043*[#   4]+0.043*[#   8]+0.004*[#   3]
          +0.004*[#   7]+0.003*[#   1]+0.003*[#   5]
    |psi|^2 = 0.359

 k =  -0.2500000000 -0.3367780921  0.0000000000
==== e(   1) =   -12.52768 eV ==== 
     psi = 0.347*[#   1]+0.347*[#   5]+0.088*[#   4]+0.088*[#   8]+0.055*[#   3]
          +0.055*[#   7]+0.005*[#   2]+0.005*[#   6]
    |psi|^2 = 0.990
==== e(   2) =    -8.73767 eV ==== 
     psi = 0.229*[#   1]+0.229*[#   5]+0.145*[#   3]+0.145*[#   7]+0.121*[#   4]
          +0.121*[#   8]+0.055*[#   2]+0.055*[#   6]
    |psi|^2 = 1.099
==== e(   3) =    -6.22933 eV ==== 
     psi = 0.246*[#   4]+0.246*[#   8]+0.227*[#   3]+0.227*[#   7]+0.019*[#   1]
          +0.019*[#   5]
    |psi|^2 = 0.984
==== e(   4) =    -4.55397 eV ==== 
     psi = 0.145*[#   2]+0.145*[#   6]+0.016*[#   1]+0.016*[#   5]+0.013*[#   4]
          +0.013*[#   8]+0.005*[#   3]+0.005*[#   7]
    |psi|^2 = 0.358
==== e(   5) =    -1.11237 eV ==== 
     psi = 0.418*[#   2]+0.418*[#   6]+0.031*[#   1]+0.031*[#   5]+0.020*[#   3]
          +0.020*[#   7]+0.008*[#   4]+0.008*[#   8]
    |psi|^2 = 0.953
==== e(   6) =     0.22776 eV ==== 
     psi = 0.157*[#   3]+0.157*[#   7]+0.133*[#   1]+0.133*[#   5]+0.067*[#   4]
          +0.067*[#   8]+0.020*[#   2]+0.020*[#   6]
    |psi|^2 = 0.753
==== e(   7) =     1.81901 eV ==== 
     psi = 0.177*[#   4]+0.177*[#   8]+0.096*[#   1]+0.096*[#   5]+0.080*[#   3]
          +0.080*[#   7]+0.037*[#   2]+0.037*[#   6]
    |psi|^2 = 0.780
==== e(   8) =     1.92670 eV ==== 
     psi = 0.157*[#   2]+0.157*[#   6]+0.037*[#   3]+0.037*[#   7]+0.006*[#   4]
          +0.006*[#   8]+0.004*[#   1]+0.004*[#   5]
    |psi|^2 = 0.410

 k =  -0.1666666667 -0.2886669361  0.0000000000
==== e(   1) =   -13.05653 eV ==== 
     psi = 0.372*[#   1]+0.372*[#   5]+0.085*[#   4]+0.085*[#   8]+0.031*[#   3]
          +0.031*[#   7]+0.007*[#   2]+0.007*[#   6]
    |psi|^2 = 0.991
==== e(   2) =    -7.76286 eV ==== 
     psi = 0.209*[#   1]+0.209*[#   5]+0.191*[#   4]+0.191*[#   8]+0.093*[#   3]
          +0.093*[#   7]+0.031*[#   2]+0.031*[#   6]
    |psi|^2 = 1.048
==== e(   3) =    -5.71292 eV ==== 
     psi = 0.303*[#   3]+0.303*[#   7]+0.173*[#   4]+0.173*[#   8]+0.016*[#   1]
          +0.016*[#   5]+0.002*[#   2]+0.002*[#   6]
    |psi|^2 = 0.987
==== e(   4) =    -5.05385 eV ==== 
     psi = 0.093*[#   2]+0.093*[#   6]+0.015*[#   4]+0.015*[#   8]+0.012*[#   1]
          +0.012*[#   5]+0.006*[#   3]+0.006*[#   7]
    |psi|^2 = 0.252
==== e(   5) =    -0.45908 eV ==== 
     psi = 0.383*[#   2]+0.383*[#   6]+0.034*[#   1]+0.034*[#   5]+0.018*[#   4]
          +0.018*[#   8]+0.016*[#   3]+0.016*[#   7]
    |psi|^2 = 0.903
==== e(   6) =     0.45389 eV ==== 
     psi = 0.171*[#   4]+0.171*[#   8]+0.110*[#   3]+0.110*[#   7]+0.056*[#   1]
          +0.056*[#   5]+0.016*[#   2]+0.016*[#   6]
    |psi|^2 = 0.705
==== e(   7) =     0.62833 eV ==== 
     psi = 0.186*[#   1]+0.186*[#   5]+0.171*[#   3]+0.172*[#   7]+0.083*[#   4]
          +0.083*[#   8]+0.050*[#   2]+0.050*[#   6]
    |psi|^2 = 0.982
==== e(   8) =     1.59413 eV ==== 
     psi = 0.110*[#   2]+0.110*[#   6]+0.009*[#   4]+0.009*[#   8]+0.003*[#   3]
          +0.003*[#   7]
    |psi|^2 = 0.246

 k =  -0.0833333333 -0.2405557801  0.0000000000
==== e(   1) =   -13.44850 eV ==== 
     psi = 0.402*[#   1]+0.402*[#   5]+0.076*[#   4]+0.076*[#   8]+0.010*[#   3]
          +0.010*[#   7]+0.008*[#   2]+0.008*[#   6]
    |psi|^2 = 0.991
==== e(   2) =    -6.86962 eV ==== 
     psi = 0.267*[#   4]+0.267*[#   8]+0.183*[#   1]+0.183*[#   5]+0.032*[#   3]
          +0.032*[#   7]+0.010*[#   2]+0.010*[#   6]
    |psi|^2 = 0.984
==== e(   3) =    -5.41343 eV ==== 
     psi = 0.038*[#   4]+0.038*[#   8]+0.012*[#   2]+0.012*[#   6]+0.007*[#   1]
          +0.007*[#   5]
    |psi|^2 = 0.113
==== e(   4) =    -5.07094 eV ==== 
     psi = 0.419*[#   3]+0.419*[#   7]+0.063*[#   4]+0.063*[#   8]+0.032*[#   2]
          +0.032*[#   6]+0.008*[#   1]+0.008*[#   5]
    |psi|^2 = 1.044
==== e(   5) =    -0.51668 eV ==== 
     psi = 0.217*[#   4]+0.217*[#   8]+0.148*[#   1]+0.148*[#   5]+0.036*[#   3]
          +0.036*[#   7]+0.032*[#   2]+0.032*[#   6]
    |psi|^2 = 0.866
==== e(   6) =    -0.06549 eV ==== 
     psi = 0.036*[#   2]+0.036*[#   6]+0.030*[#   4]+0.030*[#   8]+0.017*[#   1]
          +0.017*[#   5]+0.003*[#   3]+0.003*[#   7]
    |psi|^2 = 0.171
==== e(   7) =     0.87092 eV ==== 
     psi = 0.326*[#   2]+0.326*[#   6]+0.242*[#   3]+0.242*[#   7]+0.107*[#   1]
          +0.107*[#   5]+0.077*[#   4]+0.077*[#   8]
    |psi|^2 = 1.506
==== e(   8) =     1.68020 eV ==== 
     psi = 0.011*[#   4]+0.011*[#   8]+0.005*[#   3]+0.005*[#   7]+0.003*[#   2]
          +0.003*[#   6]+0.002*[#   1]+0.002*[#   5]
    |psi|^2 = 0.041

 k =   0.0000000000 -0.1924446241  0.0000000000
==== e(   1) =   -13.68773 eV ==== 
     psi = 0.429*[#   1]+0.429*[#   5]+0.057*[#   4]+0.057*[#   8]+0.010*[#   2]
          +0.010*[#   6]
    |psi|^2 = 0.992
==== e(   2) =    -6.19413 eV ==== 
     psi = 0.240*[#   4]+0.240*[#   8]+0.159*[#   1]+0.159*[#   5]
    |psi|^2 = 0.798
==== e(   3) =    -5.55534 eV ==== 
     psi = 0.124*[#   4]+0.124*[#   8]+0.095*[#   2]+0.095*[#   6]+0.002*[#   1]
          +0.002*[#   5]
    |psi|^2 = 0.441
==== e(   4) =    -4.64116 eV ==== 
     psi = 0.492*[#   3]+0.492*[#   7]
    |psi|^2 = 0.984
==== e(   5) =    -0.77586 eV ==== 
     psi = 0.260*[#   4]+0.260*[#   8]+0.175*[#   1]+0.175*[#   5]+0.014*[#   2]
          +0.014*[#   6]
    |psi|^2 = 0.897
==== e(   6) =    -0.09162 eV ==== 
     psi = 0.013*[#   4]+0.013*[#   8]+0.008*[#   1]+0.008*[#   5]
    |psi|^2 = 0.043
==== e(   7) =     1.18219 eV ==== 
     psi = 0.435*[#   3]+0.435*[#   7]+0.276*[#   2]+0.276*[#   6]
    |psi|^2 = 1.423
==== e(   8) =     1.23732 eV ==== 
     psi = 0.234*[#   4]+0.234*[#   8]+0.194*[#   1]+0.194*[#   5]
    |psi|^2 = 0.856

 k =   0.5000000000  0.0000000000  0.0000000000
==== e(   1) =   -11.95285 eV ==== 
     psi = 0.328*[#   1]+0.328*[#   5]+0.142*[#   3]+0.142*[#   7]+0.021*[#   4]
          +0.021*[#   8]+0.003*[#   2]+0.003*[#   6]
    |psi|^2 = 0.990
==== e(   2) =    -9.47930 eV ==== 
     psi = 0.255*[#   1]+0.255*[#   5]+0.171*[#   3]+0.171*[#   7]+0.142*[#   2]
          +0.142*[#   6]+0.068*[#   4]+0.068*[#   8]
    |psi|^2 = 1.273
==== e(   3) =    -6.83997 eV ==== 
     psi = 0.326*[#   4]+0.326*[#   8]+0.152*[#   3]+0.152*[#   7]+0.013*[#   1]
          +0.013*[#   5]
    |psi|^2 = 0.983
==== e(   4) =    -4.00695 eV ==== 
     psi = 0.171*[#   2]+0.171*[#   6]+0.018*[#   1]+0.018*[#   5]+0.015*[#   3]
          +0.015*[#   7]+0.002*[#   4]+0.002*[#   8]
    |psi|^2 = 0.414
==== e(   5) =    -1.73075 eV ==== 
     psi = 0.440*[#   2]+0.440*[#   6]+0.025*[#   1]+0.025*[#   5]+0.010*[#   3]
          +0.010*[#   7]+0.009*[#   4]+0.009*[#   8]
    |psi|^2 = 0.969
==== e(   6) =     1.44735 eV ==== 
     psi = 0.112*[#   3]+0.112*[#   7]+0.069*[#   1]+0.069*[#   5]+0.065*[#   4]
          +0.065*[#   8]+0.010*[#   2]+0.010*[#   6]
    |psi|^2 = 0.510
==== e(   7) =     1.62161 eV ==== 
     psi = 0.239*[#   4]+0.239*[#   8]+0.058*[#   1]+0.058*[#   5]+0.018*[#   2]
          +0.018*[#   6]+0.001*[#   3]+0.001*[#   7]
    |psi|^2 = 0.633
==== e(   8) =     1.95875 eV ==== 
     psi = 0.139*[#   3]+0.139*[#   7]+0.120*[#   1]+0.120*[#   5]+0.112*[#   2]
          +0.112*[#   6]+0.011*[#   4]+0.011*[#   8]
    |psi|^2 = 0.763

 k =   0.5833333333  0.0481111560  0.0000000000
==== e(   1) =   -11.34600 eV ==== 
     psi = 0.317*[#   1]+0.317*[#   5]+0.127*[#   3]+0.127*[#   7]+0.049*[#   4]
          +0.049*[#   8]+0.002*[#   2]+0.002*[#   6]
    |psi|^2 = 0.990
==== e(   2) =   -10.17986 eV ==== 
     psi = 0.269*[#   1]+0.269*[#   5]+0.143*[#   3]+0.143*[#   7]+0.127*[#   2]
          +0.127*[#   6]+0.081*[#   4]+0.081*[#   8]
    |psi|^2 = 1.242
==== e(   3) =    -7.15754 eV ==== 
     psi = 0.298*[#   4]+0.298*[#   8]+0.184*[#   3]+0.184*[#   7]+0.009*[#   1]
          +0.009*[#   5]
    |psi|^2 = 0.983
==== e(   4) =    -3.43700 eV ==== 
     psi = 0.143*[#   2]+0.143*[#   6]+0.021*[#   1]+0.021*[#   5]+0.012*[#   3]
          +0.012*[#   7]+0.004*[#   4]+0.004*[#   8]
    |psi|^2 = 0.361
==== e(   5) =    -2.35047 eV ==== 
     psi = 0.445*[#   2]+0.445*[#   6]+0.023*[#   1]+0.023*[#   5]+0.011*[#   3]
          +0.011*[#   7]+0.008*[#   4]+0.008*[#   8]
    |psi|^2 = 0.974
==== e(   6) =     1.37128 eV ==== 
     psi = 0.148*[#   4]+0.148*[#   8]+0.043*[#   3]+0.043*[#   7]+0.011*[#   2]
          +0.011*[#   6]+0.009*[#   1]+0.009*[#   5]
    |psi|^2 = 0.421
==== e(   7) =     1.48805 eV ==== 
     psi = 0.120*[#   3]+0.120*[#   7]+0.108*[#   1]+0.108*[#   5]+0.040*[#   4]
          +0.040*[#   8]+0.004*[#   2]+0.004*[#   6]
    |psi|^2 = 0.545
==== e(   8) =     3.16700 eV ==== 
     psi = 0.084*[#   1]+0.084*[#   5]+0.059*[#   3]+0.059*[#   7]+0.055*[#   4]
          +0.055*[#   8]+0.043*[#   2]+0.043*[#   6]
    |psi|^2 = 0.482

 k =   0.6666666667  0.0962223120  0.0000000000
==== e(   1) =   -11.34609 eV ==== 
     psi = 0.317*[#   1]+0.317*[#   5]+0.097*[#   4]+0.097*[#   8]+0.079*[#   3]
          +0.079*[#   7]+0.002*[#   2]+0.002*[#   6]
    |psi|^2 = 0.990
==== e(   2) =   -10.17976 eV ==== 
     psi = 0.269*[#   1]+0.269*[#   5]+0.136*[#   3]+0.136*[#   7]+0.089*[#   4]
          +0.089*[#   8]+0.079*[#   2]+0.079*[#   6]
    |psi|^2 = 1.146
==== e(   3) =    -7.15755 eV ==== 
     psi = 0.257*[#   4]+0.257*[#   8]+0.226*[#   3]+0.226*[#   7]+0.009*[#   1]
          +0.009*[#   5]
    |psi|^2 = 0.983
==== e(   4) =    -3.43707 eV ==== 
     psi = 0.136*[#   2]+0.136*[#   6]+0.021*[#   1]+0.021*[#   5]+0.011*[#   4]
          +0.011*[#   8]+0.006*[#   3]+0.006*[#   7]
    |psi|^2 = 0.346
==== e(   5) =    -2.35040 eV ==== 
     psi = 0.445*[#   2]+0.445*[#   6]+0.023*[#   1]+0.023*[#   5]+0.014*[#   3]
          +0.014*[#   7]+0.005*[#   4]+0.005*[#   8]
    |psi|^2 = 0.974
==== e(   6) =     1.37128 eV ==== 
     psi = 0.137*[#   3]+0.137*[#   7]+0.054*[#   4]+0.054*[#   8]+0.014*[#   2]
          +0.014*[#   6]+0.009*[#   1]+0.009*[#   5]
    |psi|^2 = 0.427
==== e(   7) =     1.48807 eV ==== 
     psi = 0.112*[#   4]+0.112*[#   8]+0.108*[#   1]+0.108*[#   5]+0.049*[#   3]
          +0.049*[#   7]+0.004*[#   2]+0.004*[#   6]
    |psi|^2 = 0.545
==== e(   8) =     3.16752 eV ==== 
     psi = 0.137*[#   2]+0.137*[#   6]+0.084*[#   1]+0.084*[#   5]+0.067*[#   4]
          +0.067*[#   8]+0.046*[#   3]+0.046*[#   7]
    |psi|^2 = 0.669

 k =  -0.2500000000 -0.4330004041  0.0000000000
==== e(   1) =   -11.95296 eV ==== 
     psi = 0.328*[#   1]+0.328*[#   5]+0.112*[#   4]+0.112*[#   8]+0.051*[#   3]
          +0.051*[#   7]+0.003*[#   2]+0.003*[#   6]
    |psi|^2 = 0.990
==== e(   2) =    -9.47919 eV ==== 
     psi = 0.255*[#   1]+0.255*[#   5]+0.146*[#   4]+0.146*[#   8]+0.094*[#   3]
          +0.094*[#   7]+0.051*[#   2]+0.051*[#   6]
    |psi|^2 = 1.092
==== e(   3) =    -6.83998 eV ==== 
     psi = 0.283*[#   3]+0.283*[#   7]+0.196*[#   4]+0.196*[#   8]+0.013*[#   1]
          +0.013*[#   5]
    |psi|^2 = 0.983
==== e(   4) =    -4.00703 eV ==== 
     psi = 0.094*[#   2]+0.094*[#   6]+0.018*[#   1]+0.018*[#   5]+0.012*[#   4]
          +0.012*[#   8]+0.005*[#   3]+0.005*[#   7]
    |psi|^2 = 0.259
==== e(   5) =    -1.73069 eV ==== 
     psi = 0.440*[#   2]+0.440*[#   6]+0.025*[#   1]+0.025*[#   5]+0.010*[#   4]
          +0.010*[#   8]+0.010*[#   3]+0.010*[#   7]
    |psi|^2 = 0.969
==== e(   6) =     1.44757 eV ==== 
     psi = 0.100*[#   4]+0.100*[#   8]+0.077*[#   3]+0.077*[#   7]+0.069*[#   1]
          +0.069*[#   5]+0.010*[#   2]+0.010*[#   6]
    |psi|^2 = 0.509
==== e(   7) =     1.62179 eV ==== 
     psi = 0.180*[#   3]+0.180*[#   7]+0.061*[#   4]+0.061*[#   8]+0.058*[#   1]
          +0.058*[#   5]+0.018*[#   2]+0.018*[#   6]
    |psi|^2 = 0.632
==== e(   8) =     1.95900 eV ==== 
     psi = 0.120*[#   1]+0.120*[#   5]+0.107*[#   4]+0.107*[#   8]+0.077*[#   2]
          +0.077*[#   6]+0.043*[#   3]+0.043*[#   7]
    |psi|^2 = 0.694

 k =  -0.1666666667 -0.3848892481  0.0000000000
==== e(   1) =   -12.52770 eV ==== 
     psi = 0.347*[#   1]+0.347*[#   5]+0.116*[#   4]+0.116*[#   8]+0.027*[#   3]
          +0.027*[#   7]+0.005*[#   2]+0.005*[#   6]
    |psi|^2 = 0.990
==== e(   2) =    -8.73770 eV ==== 
     psi = 0.229*[#   1]+0.229*[#   5]+0.218*[#   4]+0.218*[#   8]+0.047*[#   3]
          +0.047*[#   7]+0.027*[#   2]+0.027*[#   6]
    |psi|^2 = 1.042
==== e(   3) =    -6.22924 eV ==== 
     psi = 0.353*[#   3]+0.353*[#   7]+0.120*[#   4]+0.120*[#   8]+0.019*[#   1]
          +0.019*[#   5]
    |psi|^2 = 0.984
==== e(   4) =    -4.55399 eV ==== 
     psi = 0.047*[#   2]+0.047*[#   6]+0.016*[#   1]+0.016*[#   5]+0.012*[#   4]
          +0.012*[#   8]+0.006*[#   3]+0.006*[#   7]
    |psi|^2 = 0.163
==== e(   5) =    -1.11239 eV ==== 
     psi = 0.418*[#   2]+0.418*[#   6]+0.031*[#   1]+0.031*[#   5]+0.020*[#   4]
          +0.020*[#   8]+0.008*[#   3]+0.008*[#   7]
    |psi|^2 = 0.953
==== e(   6) =     0.22808 eV ==== 
     psi = 0.156*[#   4]+0.156*[#   8]+0.133*[#   1]+0.133*[#   5]+0.068*[#   3]
          +0.068*[#   7]+0.008*[#   2]+0.008*[#   6]
    |psi|^2 = 0.729
==== e(   7) =     1.81873 eV ==== 
     psi = 0.209*[#   3]+0.209*[#   7]+0.096*[#   1]+0.096*[#   5]+0.048*[#   4]
          +0.048*[#   8]+0.037*[#   2]+0.037*[#   6]
    |psi|^2 = 0.780
==== e(   8) =     1.92661 eV ==== 
     psi = 0.068*[#   2]+0.068*[#   6]+0.023*[#   3]+0.023*[#   7]+0.020*[#   4]
          +0.020*[#   8]+0.004*[#   1]+0.004*[#   5]
    |psi|^2 = 0.231

 k =  -0.0833333333 -0.3367780921  0.0000000000
==== e(   1) =   -12.98144 eV ==== 
     psi = 0.369*[#   1]+0.369*[#   5]+0.112*[#   4]+0.112*[#   8]+0.008*[#   3]
          +0.008*[#   7]+0.006*[#   2]+0.006*[#   6]
    |psi|^2 = 0.991
==== e(   2) =    -8.03588 eV ==== 
     psi = 0.278*[#   4]+0.278*[#   8]+0.202*[#   1]+0.202*[#   5]+0.014*[#   3]
          +0.014*[#   7]+0.008*[#   2]+0.008*[#   6]
    |psi|^2 = 1.002
==== e(   3) =    -5.48129 eV ==== 
     psi = 0.429*[#   3]+0.429*[#   7]+0.047*[#   4]+0.047*[#   8]+0.014*[#   1]
          +0.014*[#   5]
    |psi|^2 = 0.981
==== e(   4) =    -4.98644 eV ==== 
     psi = 0.014*[#   4]+0.014*[#   8]+0.014*[#   1]+0.014*[#   2]+0.014*[#   5]
          +0.014*[#   6]+0.011*[#   3]+0.011*[#   7]
    |psi|^2 = 0.103
==== e(   5) =    -0.95294 eV ==== 
     psi = 0.178*[#   4]+0.178*[#   8]+0.162*[#   1]+0.162*[#   5]+0.070*[#   2]
          +0.070*[#   6]+0.033*[#   3]+0.033*[#   7]
    |psi|^2 = 0.886
==== e(   6) =    -0.44548 eV ==== 
     psi = 0.033*[#   4]+0.033*[#   8]+0.033*[#   2]+0.033*[#   6]+0.031*[#   1]
          +0.031*[#   5]+0.005*[#   3]+0.005*[#   7]
    |psi|^2 = 0.204
==== e(   7) =     1.53043 eV ==== 
     psi = 0.375*[#   2]+0.375*[#   6]+0.048*[#   4]+0.048*[#   8]+0.010*[#   1]
          +0.010*[#   5]+0.008*[#   3]+0.008*[#   7]
    |psi|^2 = 0.881
==== e(   8) =     2.15928 eV ==== 
     psi = 0.257*[#   3]+0.257*[#   7]+0.068*[#   1]+0.068*[#   5]+0.036*[#   4]
          +0.036*[#   8]+0.005*[#   2]+0.005*[#   6]
    |psi|^2 = 0.733

 k =   0.0000000000 -0.2886669361  0.0000000000
==== e(   1) =   -13.29154 eV ==== 
     psi = 0.389*[#   1]+0.389*[#   5]+0.099*[#   4]+0.099*[#   8]+0.008*[#   2]
          +0.008*[#   6]
    |psi|^2 = 0.991
==== e(   2) =    -7.37715 eV ==== 
     psi = 0.305*[#   4]+0.305*[#   8]+0.185*[#   1]+0.185*[#   5]
    |psi|^2 = 0.980
==== e(   3) =    -5.28289 eV ==== 
     psi = 0.025*[#   4]+0.025*[#   8]+0.012*[#   1]+0.012*[#   5]+0.004*[#   2]
          +0.004*[#   6]
    |psi|^2 = 0.082
==== e(   4) =    -5.00118 eV ==== 
     psi = 0.493*[#   3]+0.493*[#   7]
    |psi|^2 = 0.987
==== e(   5) =    -1.21145 eV ==== 
     psi = 0.236*[#   4]+0.236*[#   8]+0.189*[#   1]+0.189*[#   5]+0.017*[#   2]
          +0.017*[#   6]
    |psi|^2 = 0.884
==== e(   6) =    -0.18038 eV ==== 
     psi = 0.012*[#   1]+0.012*[#   5]+0.010*[#   4]+0.010*[#   8]
    |psi|^2 = 0.043
==== e(   7) =     1.46837 eV ==== 
     psi = 0.392*[#   2]+0.392*[#   6]+0.052*[#   4]+0.052*[#   8]+0.013*[#   1]
          +0.013*[#   5]
    |psi|^2 = 0.914
==== e(   8) =     2.28807 eV ==== 
     psi = 0.421*[#   3]+0.421*[#   7]
    |psi|^2 = 0.843

 k =   0.6666666667  0.0000000000  0.0000000000
==== e(   1) =   -10.74704 eV ==== 
     psi = 0.366*[#   1]+0.229*[#   5]+0.121*[#   7]+0.121*[#   8]+0.076*[#   3]
          +0.076*[#   4]+0.002*[#   2]+0.001*[#   6]
    |psi|^2 = 0.990
==== e(   2) =   -10.74682 eV ==== 
     psi = 0.366*[#   5]+0.229*[#   1]+0.121*[#   3]+0.121*[#   4]+0.121*[#   6]
          +0.076*[#   2]+0.076*[#   7]+0.076*[#   8]
    |psi|^2 = 1.184
==== e(   3) =    -7.39042 eV ==== 
     psi = 0.245*[#   3]+0.245*[#   4]+0.245*[#   7]+0.245*[#   8]+0.002*[#   6]
          +0.001*[#   2]
    |psi|^2 = 0.983
==== e(   4) =    -2.87748 eV ==== 
     psi = 0.121*[#   2]+0.076*[#   6]+0.033*[#   1]+0.013*[#   7]+0.013*[#   8]
          +0.010*[#   5]+0.004*[#   3]+0.004*[#   4]
    |psi|^2 = 0.272
==== e(   5) =    -2.87730 eV ==== 
     psi = 0.705*[#   6]+0.203*[#   2]+0.033*[#   5]+0.013*[#   3]+0.013*[#   4]
          +0.010*[#   1]+0.004*[#   7]+0.004*[#   8]
    |psi|^2 = 0.984
==== e(   6) =     1.14055 eV ==== 
     psi = 0.097*[#   3]+0.097*[#   4]+0.097*[#   7]+0.097*[#   8]+0.013*[#   2]
          +0.004*[#   6]
    |psi|^2 = 0.405
==== e(   7) =     2.75860 eV ==== 
     psi = 0.002*[#   3]+0.002*[#   4]+0.002*[#   7]+0.002*[#   8]
    |psi|^2 = 0.007
==== e(   8) =     3.22005 eV ==== 
     psi = 0.107*[#   1]+0.104*[#   5]+0.097*[#   2]+0.097*[#   6]+0.068*[#   7]
          +0.068*[#   8]+0.066*[#   3]+0.066*[#   4]
    |psi|^2 = 0.674

 k =   0.7500000000  0.0481111560  0.0000000000
==== e(   1) =   -11.34618 eV ==== 
     psi = 0.317*[#   1]+0.317*[#   5]+0.118*[#   4]+0.118*[#   8]+0.058*[#   3]
          +0.058*[#   7]+0.002*[#   2]+0.002*[#   6]
    |psi|^2 = 0.990
==== e(   2) =   -10.17971 eV ==== 
     psi = 0.269*[#   1]+0.269*[#   5]+0.167*[#   4]+0.167*[#   8]+0.058*[#   2]
          +0.058*[#   3]+0.058*[#   6]+0.058*[#   7]
    |psi|^2 = 1.103
==== e(   3) =    -7.15750 eV ==== 
     psi = 0.314*[#   3]+0.314*[#   7]+0.168*[#   4]+0.168*[#   8]+0.009*[#   1]
          +0.009*[#   5]
    |psi|^2 = 0.983
==== e(   4) =    -3.43714 eV ==== 
     psi = 0.058*[#   2]+0.058*[#   6]+0.021*[#   1]+0.021*[#   5]+0.010*[#   4]
          +0.010*[#   8]+0.007*[#   3]+0.007*[#   7]
    |psi|^2 = 0.189
==== e(   5) =    -2.35037 eV ==== 
     psi = 0.445*[#   2]+0.445*[#   6]+0.023*[#   1]+0.023*[#   5]+0.015*[#   4]
          +0.015*[#   8]+0.004*[#   3]+0.004*[#   7]
    |psi|^2 = 0.974
==== e(   6) =     1.37136 eV ==== 
     psi = 0.107*[#   3]+0.107*[#   7]+0.084*[#   4]+0.084*[#   8]+0.009*[#   1]
          +0.009*[#   5]+0.004*[#   2]+0.004*[#   6]
    |psi|^2 = 0.408
==== e(   7) =     1.48849 eV ==== 
     psi = 0.108*[#   1]+0.108*[#   5]+0.089*[#   4]+0.089*[#   8]+0.072*[#   3]
          +0.072*[#   7]+0.004*[#   2]+0.004*[#   6]
    |psi|^2 = 0.545
==== e(   8) =     3.16709 eV ==== 
     psi = 0.107*[#   2]+0.107*[#   6]+0.084*[#   1]+0.084*[#   5]+0.065*[#   3]
          +0.065*[#   7]+0.048*[#   4]+0.048*[#   8]
    |psi|^2 = 0.609

 k =  -0.1666666667 -0.4811115601  0.0000000000
==== e(   1) =   -11.91500 eV ==== 
     psi = 0.333*[#   1]+0.333*[#   5]+0.132*[#   4]+0.132*[#   8]+0.027*[#   3]
          +0.027*[#   7]+0.003*[#   2]+0.003*[#   6]
    |psi|^2 = 0.990
==== e(   2) =    -9.65705 eV ==== 
     psi = 0.238*[#   1]+0.238*[#   5]+0.231*[#   4]+0.231*[#   8]+0.027*[#   2]
          +0.027*[#   6]+0.025*[#   3]+0.025*[#   7]
    |psi|^2 = 1.041
==== e(   3) =    -6.53814 eV ==== 
     psi = 0.376*[#   3]+0.376*[#   7]+0.095*[#   4]+0.095*[#   8]+0.021*[#   1]
          +0.021*[#   5]
    |psi|^2 = 0.985
==== e(   4) =    -3.97602 eV ==== 
     psi = 0.025*[#   2]+0.025*[#   6]+0.020*[#   1]+0.020*[#   5]+0.011*[#   4]
          +0.011*[#   8]+0.006*[#   3]+0.006*[#   7]
    |psi|^2 = 0.125
==== e(   5) =    -1.87034 eV ==== 
     psi = 0.427*[#   2]+0.427*[#   6]+0.027*[#   1]+0.027*[#   5]+0.022*[#   4]
          +0.022*[#   8]+0.003*[#   3]+0.003*[#   7]
    |psi|^2 = 0.959
==== e(   6) =     0.02195 eV ==== 
     psi = 0.156*[#   1]+0.156*[#   5]+0.132*[#   4]+0.132*[#   8]+0.068*[#   3]
          +0.068*[#   7]+0.003*[#   2]+0.003*[#   6]
    |psi|^2 = 0.719
==== e(   7) =     1.99106 eV ==== 
     psi = 0.105*[#   3]+0.105*[#   7]+0.050*[#   4]+0.050*[#   8]+0.030*[#   2]
          +0.030*[#   6]
    |psi|^2 = 0.370
==== e(   8) =     2.65035 eV ==== 
     psi = 0.068*[#   2]+0.068*[#   6]+0.039*[#   3]+0.039*[#   7]+0.008*[#   4]
          +0.008*[#   8]+0.003*[#   1]+0.003*[#   5]
    |psi|^2 = 0.238

 k =  -0.0833333333 -0.4330004041  0.0000000000
==== e(   1) =   -12.39721 eV ==== 
     psi = 0.347*[#   1]+0.347*[#   5]+0.136*[#   4]+0.136*[#   8]+0.007*[#   3]
          +0.007*[#   7]+0.004*[#   2]+0.004*[#   6]
    |psi|^2 = 0.990
==== e(   2) =    -9.13300 eV ==== 
     psi = 0.273*[#   4]+0.273*[#   8]+0.214*[#   1]+0.214*[#   5]+0.007*[#   2]
          +0.007*[#   6]+0.007*[#   3]+0.007*[#   7]
    |psi|^2 = 1.000
==== e(   3) =    -5.76639 eV ==== 
     psi = 0.442*[#   3]+0.442*[#   7]+0.035*[#   4]+0.035*[#   8]+0.016*[#   1]
          +0.016*[#   5]
    |psi|^2 = 0.986
==== e(   4) =    -4.44050 eV ==== 
     psi = 0.021*[#   1]+0.021*[#   5]+0.014*[#   4]+0.014*[#   8]+0.007*[#   2]
          +0.007*[#   6]+0.005*[#   3]+0.005*[#   7]
    |psi|^2 = 0.093
==== e(   5) =    -1.48468 eV ==== 
     psi = 0.304*[#   2]+0.304*[#   6]+0.082*[#   1]+0.082*[#   5]+0.072*[#   4]
          +0.073*[#   8]+0.011*[#   3]+0.011*[#   7]
    |psi|^2 = 0.940
==== e(   6) =    -1.02097 eV ==== 
     psi = 0.133*[#   1]+0.133*[#   5]+0.116*[#   4]+0.116*[#   8]+0.026*[#   3]
          +0.026*[#   7]+0.011*[#   2]+0.011*[#   6]
    |psi|^2 = 0.573
==== e(   7) =     1.97242 eV ==== 
     psi = 0.147*[#   2]+0.147*[#   6]+0.043*[#   4]+0.043*[#   8]+0.003*[#   1]
          +0.003*[#   5]
    |psi|^2 = 0.386
==== e(   8) =     2.95578 eV ==== 
     psi = 0.169*[#   3]+0.169*[#   7]+0.026*[#   2]+0.026*[#   6]+0.004*[#   1]
          +0.004*[#   5]+0.001*[#   4]+0.001*[#   8]
    |psi|^2 = 0.401

 k =   0.0000000000 -0.3848892481  0.0000000000
==== e(   1) =   -12.75875 eV ==== 
     psi = 0.360*[#   1]+0.360*[#   5]+0.130*[#   4]+0.130*[#   8]+0.006*[#   2]
          +0.006*[#   6]
    |psi|^2 = 0.990
==== e(   2) =    -8.57570 eV ==== 
     psi = 0.292*[#   4]+0.292*[#   8]+0.201*[#   1]+0.201*[#   5]
    |psi|^2 = 0.986
==== e(   3) =    -5.29707 eV ==== 
     psi = 0.494*[#   3]+0.494*[#   7]
    |psi|^2 = 0.988
==== e(   4) =    -4.79034 eV ==== 
     psi = 0.021*[#   1]+0.021*[#   5]+0.018*[#   4]+0.018*[#   8]
    |psi|^2 = 0.079
==== e(   5) =    -1.59436 eV ==== 
     psi = 0.207*[#   1]+0.207*[#   5]+0.200*[#   4]+0.200*[#   8]+0.037*[#   2]
          +0.037*[#   6]
    |psi|^2 = 0.888
==== e(   6) =    -0.84865 eV ==== 
     psi = 0.022*[#   1]+0.022*[#   5]+0.017*[#   4]+0.017*[#   8]
    |psi|^2 = 0.078
==== e(   7) =     1.64782 eV ==== 
     psi = 0.412*[#   2]+0.412*[#   6]+0.046*[#   4]+0.046*[#   8]+0.005*[#   1]
          +0.005*[#   5]
    |psi|^2 = 0.925
==== e(   8) =     2.92517 eV ==== 

    |psi|^2 = 0.001

 k =   0.8333333333  0.0000000000  0.0000000000
==== e(   1) =   -11.51961 eV ==== 
     psi = 0.335*[#   1]+0.335*[#   5]+0.127*[#   4]+0.127*[#   8]+0.031*[#   3]
          +0.031*[#   7]+0.002*[#   2]+0.002*[#   6]
    |psi|^2 = 0.991
==== e(   2) =   -10.16104 eV ==== 
     psi = 0.244*[#   4]+0.244*[#   8]+0.233*[#   1]+0.233*[#   5]+0.031*[#   2]
          +0.031*[#   6]+0.015*[#   3]+0.015*[#   7]
    |psi|^2 = 1.046
==== e(   3) =    -6.63966 eV ==== 
     psi = 0.383*[#   3]+0.383*[#   7]+0.087*[#   4]+0.087*[#   8]+0.022*[#   1]
          +0.022*[#   5]
    |psi|^2 = 0.986
==== e(   4) =    -3.61027 eV ==== 
     psi = 0.023*[#   1]+0.023*[#   5]+0.015*[#   2]+0.015*[#   6]+0.009*[#   4]
          +0.009*[#   8]+0.007*[#   3]+0.007*[#   7]
    |psi|^2 = 0.110
==== e(   5) =    -2.30874 eV ==== 
     psi = 0.429*[#   2]+0.429*[#   6]+0.025*[#   4]+0.025*[#   8]+0.024*[#   1]
          +0.024*[#   5]
    |psi|^2 = 0.958
==== e(   6) =    -0.05018 eV ==== 
     psi = 0.164*[#   1]+0.164*[#   5]+0.125*[#   4]+0.125*[#   8]+0.068*[#   3]
          +0.068*[#   7]
    |psi|^2 = 0.715
==== e(   7) =     1.89481 eV ==== 
     psi = 0.110*[#   3]+0.110*[#   7]+0.054*[#   4]+0.054*[#   8]+0.027*[#   2]
          +0.027*[#   6]
    |psi|^2 = 0.383
==== e(   8) =     3.27091 eV ==== 
     psi = 0.068*[#   2]+0.068*[#   6]+0.012*[#   3]+0.012*[#   7]
    |psi|^2 = 0.162

 k =  -0.0833333333 -0.5292227162  0.0000000000
==== e(   1) =   -11.82884 eV ==== 
     psi = 0.344*[#   1]+0.344*[#   5]+0.140*[#   4]+0.140*[#   8]+0.008*[#   3]
          +0.008*[#   7]+0.003*[#   2]+0.003*[#   6]
    |psi|^2 = 0.991
==== e(   2) =    -9.96771 eV ==== 
     psi = 0.276*[#   4]+0.276*[#   8]+0.212*[#   1]+0.212*[#   5]+0.008*[#   2]
          +0.008*[#   6]+0.003*[#   3]+0.003*[#   7]
    |psi|^2 = 0.998
==== e(   3) =    -5.91303 eV ==== 
     psi = 0.446*[#   3]+0.446*[#   7]+0.031*[#   4]+0.031*[#   8]+0.017*[#   1]
          +0.017*[#   5]
    |psi|^2 = 0.987
==== e(   4) =    -3.91638 eV ==== 
     psi = 0.029*[#   1]+0.029*[#   5]+0.014*[#   4]+0.014*[#   8]+0.005*[#   3]
          +0.005*[#   7]+0.003*[#   2]+0.003*[#   6]
    |psi|^2 = 0.103
==== e(   5) =    -2.12717 eV ==== 
     psi = 0.410*[#   2]+0.410*[#   6]+0.032*[#   4]+0.032*[#   8]+0.030*[#   1]
          +0.030*[#   5]
    |psi|^2 = 0.946
==== e(   6) =    -1.24672 eV ==== 
     psi = 0.192*[#   1]+0.192*[#   5]+0.147*[#   4]+0.147*[#   8]+0.035*[#   3]
          +0.035*[#   7]
    |psi|^2 = 0.749
==== e(   7) =     2.47203 eV ==== 
     psi = 0.046*[#   2]+0.046*[#   6]+0.043*[#   4]+0.043*[#   8]+0.033*[#   3]
          +0.033*[#   7]+0.001*[#   1]+0.001*[#   5]
    |psi|^2 = 0.247
==== e(   8) =     3.14242 eV ==== 
     psi = 0.101*[#   3]+0.101*[#   7]+0.035*[#   2]+0.035*[#   6]+0.003*[#   4]
          +0.003*[#   8]
    |psi|^2 = 0.277

 k =   0.0000000000 -0.4811115601  0.0000000000
==== e(   1) =   -12.15093 eV ==== 
     psi = 0.346*[#   1]+0.346*[#   5]+0.145*[#   4]+0.145*[#   8]+0.004*[#   2]
          +0.004*[#   6]
    |psi|^2 = 0.990
==== e(   2) =    -9.59928 eV ==== 
     psi = 0.284*[#   4]+0.284*[#   8]+0.208*[#   1]+0.208*[#   5]
    |psi|^2 = 0.983
==== e(   3) =    -5.48632 eV ==== 
     psi = 0.494*[#   3]+0.494*[#   7]
    |psi|^2 = 0.989
==== e(   4) =    -4.22819 eV ==== 
     psi = 0.031*[#   1]+0.031*[#   5]+0.019*[#   4]+0.019*[#   8]
    |psi|^2 = 0.101
==== e(   5) =    -1.92662 eV ==== 
     psi = 0.217*[#   2]+0.217*[#   6]+0.133*[#   1]+0.133*[#   5]+0.113*[#   4]
          +0.113*[#   8]
    |psi|^2 = 0.925
==== e(   6) =    -1.59215 eV ==== 
     psi = 0.109*[#   1]+0.109*[#   5]+0.088*[#   4]+0.088*[#   8]
    |psi|^2 = 0.394
==== e(   7) =     2.23235 eV ==== 
     psi = 0.239*[#   2]+0.239*[#   6]+0.039*[#   4]+0.039*[#   8]+0.003*[#   1]
          +0.003*[#   5]
    |psi|^2 = 0.561
==== e(   8) =     3.66200 eV ==== 
     psi = 0.002*[#   4]+0.002*[#   8]
    |psi|^2 = 0.004

 k =  -1.0000000000  0.0000000000  0.0000000000
==== e(   1) =   -11.77888 eV ==== 
     psi = 0.352*[#   1]+0.352*[#   5]+0.141*[#   4]+0.141*[#   8]+0.003*[#   2]
          +0.003*[#   6]
    |psi|^2 = 0.991
==== e(   2) =   -10.11201 eV ==== 
     psi = 0.290*[#   4]+0.290*[#   8]+0.200*[#   1]+0.200*[#   5]
    |psi|^2 = 0.981
==== e(   3) =    -5.55105 eV ==== 
     psi = 0.494*[#   3]+0.494*[#   7]
    |psi|^2 = 0.989
==== e(   4) =    -3.89726 eV ==== 
     psi = 0.041*[#   1]+0.041*[#   5]+0.021*[#   4]+0.021*[#   8]
    |psi|^2 = 0.125
==== e(   5) =    -2.24097 eV ==== 
     psi = 0.413*[#   2]+0.413*[#   6]+0.031*[#   4]+0.031*[#   8]+0.026*[#   1]
          +0.026*[#   5]
    |psi|^2 = 0.940
==== e(   6) =    -1.79795 eV ==== 
     psi = 0.215*[#   1]+0.215*[#   5]+0.162*[#   4]+0.162*[#   8]
    |psi|^2 = 0.754
==== e(   7) =     2.71638 eV ==== 
     psi = 0.053*[#   2]+0.053*[#   6]+0.034*[#   4]+0.034*[#   8]+0.002*[#   1]
          +0.002*[#   5]
    |psi|^2 = 0.179
==== e(   8) =     3.56992 eV ==== 
     psi = 0.009*[#   4]+0.009*[#   8]
    |psi|^2 = 0.018

Lowdin Charges: 

     Atom #   1: total charge =   3.4886, s =  1.2003, 
     Atom #   1: total charge =   3.4886, p =  2.2883, pz=  0.4626, px=  0.9128, py=  0.9128, 
     Atom #   2: total charge =   3.4883, s =  1.1996, 
     Atom #   2: total charge =   3.4883, p =  2.2887, pz=  0.4626, px=  0.9130, py=  0.9130, 
     Spilling Parameter:   0.1279

     PROJWFC      :     12.84s CPU      9.86s WALL


   This run was terminated on:  11:51:22  13Jul2023            

=------------------------------------------------------------------------------=
   JOB DONE.
=------------------------------------------------------------------------------=
