### Running on host: qmobile

     Program PWSCF v.7.0 starts on 12Jul2023 at 17:43: 1 

     This program is part of the open-source Quantum ESPRESSO suite
     for quantum simulation of materials; please cite
         "P. Giannozzi et al., J. Phys.:Condens. Matter 21 395502 (2009);
         "P. Giannozzi et al., J. Phys.:Condens. Matter 29 465901 (2017);
         "P. Giannozzi et al., J. Chem. Phys. 152 154105 (2020);
          URL http://www.quantum-espresso.org", 
     in publications or presentations arising from this work. More details at
     http://www.quantum-espresso.org/quote

     Parallel version (MPI & OpenMP), running on       2 processor cores
     Number of MPI processes:                 1
     Threads/MPI process:                     2

     MPI processes distributed on     1 nodes
     89808 MiB available memory on the printing compute node when the environment starts

     Reading input from silicene_scf_ecutrho-150.in

     Current dimensions of program PWSCF are:
     Max number of different atomic species (ntypx) = 10
     Max number of k-points (npk) =  40000
     Max angular momentum in pseudopotentials (lmaxx) =  4
     file Si.pbe-n-kjpaw_psl.1.0.0.UPF: wavefunction(s)  3S 3P renormalized
     Message from routine set_cutoff:
     ecutrho < 4*ecutwfc, are you sure?

     Subspace diagonalization in iterative solution of the eigenvalue problem:
     a serial algorithm will be used


     G-vector sticks info
     --------------------
     sticks:   dense  smooth     PW     G-vecs:    dense   smooth      PW
     Sum         559     559    235                54133    54133   14669

     Using Slab Decomposition



     bravais-lattice index     =           -9
     lattice parameter (alat)  =       7.2962  a.u.
     unit-cell volume          =    1742.4604 (a.u.)^3
     number of atoms/cell      =            2
     number of atomic types    =            1
     number of electrons       =         8.00
     number of Kohn-Sham states=            8
     kinetic-energy cutoff     =      50.0000  Ry
     charge density cutoff     =     150.0000  Ry
     scf convergence threshold =      1.0E-08
     mixing beta               =       0.7000
     number of iterations used =            8  plain     mixing
     Exchange-correlation= SLA  PW   PBX  PBC
                           (   1   4   3   4   0   0   0)

     celldm(1)=   7.296200  celldm(2)=   1.732100  celldm(3)=   5.180000
     celldm(4)=   0.000000  celldm(5)=   0.000000  celldm(6)=   0.000000

     crystal axes: (cart. coord. in units of alat)
               a(1) = (   0.500000  -0.866050   0.000000 )  
               a(2) = (   0.500000   0.866050   0.000000 )  
               a(3) = (   0.000000   0.000000   5.180000 )  

     reciprocal axes: (cart. coord. in units 2 pi/alat)
               b(1) = (  1.000000 -0.577334  0.000000 )  
               b(2) = (  1.000000  0.577334 -0.000000 )  
               b(3) = ( -0.000000  0.000000  0.193050 )  


     PseudoPot. # 1 for Si read from file:
     ../pseudos/Si.pbe-n-kjpaw_psl.1.0.0.UPF
     MD5 check sum: c39c59da582df4a0d9f10159256ea34e
     Pseudo is Projector augmented-wave + core cor, Zval =  4.0
     Generated using &quot;atomic&quot; code by A. Dal Corso  v.6.3
     Shape of augmentation charge: PSQ
     Using radial grid of 1141 points,  6 beta functions with: 
                l(1) =   0
                l(2) =   0
                l(3) =   1
                l(4) =   1
                l(5) =   2
                l(6) =   2
     Q(r) pseudized with 0 coefficients 


     atomic species   valence    mass     pseudopotential
        Si             4.00    28.08550     Si( 1.00)

      2 Sym. Ops. (no inversion) found



   Cartesian axes

     site n.     atom                  positions (alat units)
         1           Si  tau(   1) = (   0.5000000  -0.2886833   2.0476077  )
         2           Si  tau(   2) = (   0.5000000   0.2886833   2.1611423  )

     number of k points=    31  Gaussian smearing, width (Ry)=  0.0100
                       cart. coord. in units 2pi/alat
        k(    1) = (   0.0000000   0.0000000   0.0000000), wk =   0.0200000
        k(    2) = (   0.1000000   0.0577334   0.0000000), wk =   0.0800000
        k(    3) = (   0.2000000   0.1154668   0.0000000), wk =   0.0800000
        k(    4) = (   0.3000000   0.1732002   0.0000000), wk =   0.0800000
        k(    5) = (   0.4000000   0.2309335   0.0000000), wk =   0.0800000
        k(    6) = (  -0.5000000  -0.2886669   0.0000000), wk =   0.0400000
        k(    7) = (   0.2000000   0.0000000   0.0000000), wk =   0.0400000
        k(    8) = (   0.3000000   0.0577334   0.0000000), wk =   0.0800000
        k(    9) = (   0.4000000   0.1154668   0.0000000), wk =   0.0800000
        k(   10) = (   0.5000000   0.1732002   0.0000000), wk =   0.0800000
        k(   11) = (  -0.4000000  -0.3464003   0.0000000), wk =   0.0800000
        k(   12) = (  -0.3000000  -0.2886669   0.0000000), wk =   0.0800000
        k(   13) = (  -0.2000000  -0.2309335   0.0000000), wk =   0.0800000
        k(   14) = (  -0.1000000  -0.1732002   0.0000000), wk =   0.0800000
        k(   15) = (   0.0000000  -0.1154668   0.0000000), wk =   0.0400000
        k(   16) = (   0.4000000   0.0000000   0.0000000), wk =   0.0400000
        k(   17) = (   0.5000000   0.0577334   0.0000000), wk =   0.0800000
        k(   18) = (   0.6000000   0.1154668   0.0000000), wk =   0.0800000
        k(   19) = (  -0.3000000  -0.4041337   0.0000000), wk =   0.0800000
        k(   20) = (  -0.2000000  -0.3464003   0.0000000), wk =   0.0800000
        k(   21) = (  -0.1000000  -0.2886669   0.0000000), wk =   0.0800000
        k(   22) = (   0.0000000  -0.2309335   0.0000000), wk =   0.0400000
        k(   23) = (   0.6000000   0.0000000   0.0000000), wk =   0.0400000
        k(   24) = (   0.7000000   0.0577334   0.0000000), wk =   0.0800000
        k(   25) = (  -0.2000000  -0.4618671   0.0000000), wk =   0.0800000
        k(   26) = (  -0.1000000  -0.4041337   0.0000000), wk =   0.0800000
        k(   27) = (  -0.0000000  -0.3464003   0.0000000), wk =   0.0400000
        k(   28) = (   0.8000000   0.0000000   0.0000000), wk =   0.0400000
        k(   29) = (  -0.1000000  -0.5196005   0.0000000), wk =   0.0800000
        k(   30) = (   0.0000000  -0.4618671   0.0000000), wk =   0.0400000
        k(   31) = (  -1.0000000   0.0000000   0.0000000), wk =   0.0200000

     Dense  grid:    54133 G-vectors     FFT dimensions: (  30,  30, 150)

     Estimated max dynamical RAM per process >     234.40 MB

     Check: negative core charge=   -0.000002

     Initial potential from superposition of free atoms

     starting charge       7.9989, renormalised to       8.0000

     negative rho (up, down):  2.514E-04 0.000E+00
     Starting wfcs are    8 randomized atomic wfcs
     Checking if some PAW data can be deallocated... 

     total cpu time spent up to now is        7.8 secs

     per-process dynamical memory:    83.6 Mb

     Self-consistent Calculation

     iteration #  1     ecut=    50.00 Ry     beta= 0.70
     Davidson diagonalization with overlap
     ethr =  1.00E-02,  avg # of iterations =  4.6

     Threshold (ethr) on eigenvalues was too large:
     Diagonalizing with lowered threshold

     Davidson diagonalization with overlap
     ethr =  7.47E-04,  avg # of iterations =  1.4

     negative rho (up, down):  2.788E-04 0.000E+00

     total cpu time spent up to now is       34.8 secs

     total energy              =     -93.35276965 Ry
     estimated scf accuracy    <       0.06560339 Ry

     iteration #  2     ecut=    50.00 Ry     beta= 0.70
     Davidson diagonalization with overlap
     ethr =  8.20E-04,  avg # of iterations =  3.0

     negative rho (up, down):  2.913E-04 0.000E+00

     total cpu time spent up to now is       47.4 secs

     total energy              =     -93.35936930 Ry
     estimated scf accuracy    <       0.00191459 Ry

     iteration #  3     ecut=    50.00 Ry     beta= 0.70
     Davidson diagonalization with overlap
     c_bands:  1 eigenvalues not converged
     ethr =  2.39E-05,  avg # of iterations =  9.1

     negative rho (up, down):  2.942E-04 0.000E+00

     total cpu time spent up to now is       70.0 secs

     total energy              =     -93.35957716 Ry
     estimated scf accuracy    <       0.00013635 Ry

     iteration #  4     ecut=    50.00 Ry     beta= 0.70
     Davidson diagonalization with overlap
     c_bands:  1 eigenvalues not converged
     c_bands:  1 eigenvalues not converged
     c_bands:  1 eigenvalues not converged
     ethr =  1.70E-06,  avg # of iterations =  8.6

     negative rho (up, down):  2.941E-04 0.000E+00

     total cpu time spent up to now is       90.2 secs

     total energy              =     -93.35957112 Ry
     estimated scf accuracy    <       0.00020826 Ry

     iteration #  5     ecut=    50.00 Ry     beta= 0.70
     Davidson diagonalization with overlap
     c_bands:  1 eigenvalues not converged
     c_bands:  1 eigenvalues not converged
     c_bands:  1 eigenvalues not converged
     ethr =  1.70E-06,  avg # of iterations =  4.0

     negative rho (up, down):  2.934E-04 0.000E+00

     total cpu time spent up to now is      106.0 secs

     total energy              =     -93.35960441 Ry
     estimated scf accuracy    <       0.00000123 Ry

     iteration #  6     ecut=    50.00 Ry     beta= 0.70
     Davidson diagonalization with overlap
     ethr =  1.54E-08,  avg # of iterations =  3.1

     negative rho (up, down):  2.931E-04 0.000E+00

     total cpu time spent up to now is      121.2 secs

     total energy              =     -93.35960499 Ry
     estimated scf accuracy    <       0.00000011 Ry

     iteration #  7     ecut=    50.00 Ry     beta= 0.70
     Davidson diagonalization with overlap
     ethr =  1.42E-09,  avg # of iterations =  2.2

     negative rho (up, down):  2.929E-04 0.000E+00

     total cpu time spent up to now is      133.4 secs

     total energy              =     -93.35960501 Ry
     estimated scf accuracy    <       0.00000001 Ry

     iteration #  8     ecut=    50.00 Ry     beta= 0.70
     Davidson diagonalization with overlap
     ethr =  1.86E-10,  avg # of iterations =  2.1

     negative rho (up, down):  2.929E-04 0.000E+00

     total cpu time spent up to now is      145.7 secs

     End of self-consistent calculation

          k = 0.0000 0.0000 0.0000 ( 10447 PWs)   bands (ev):

   -14.0115  -6.0528  -4.1666  -4.1665  -0.9860  -0.2902   0.0826   0.0829

          k = 0.1000 0.0577 0.0000 ( 10387 PWs)   bands (ev):

   -13.8946  -5.9770  -4.9788  -4.3679  -0.5621  -0.2091   0.3042   0.5099

          k = 0.2000 0.1155 0.0000 ( 10396 PWs)   bands (ev):

   -13.5477  -6.6369  -5.4976  -4.7894  -0.9494  -0.0781   1.5343   1.5968

          k = 0.3000 0.1732 0.0000 ( 10390 PWs)   bands (ev):

   -12.9867  -8.1100  -5.1909  -5.0028  -1.4531  -0.5320   1.4713   3.0012

          k = 0.4000 0.2309 0.0000 ( 10418 PWs)   bands (ev):

   -12.2715  -9.4182  -5.4591  -4.3384  -1.8533  -1.4762   2.0812   3.3447

          k =-0.5000-0.2887 0.0000 ( 10434 PWs)   bands (ev):

   -11.7793 -10.1127  -5.5521  -3.8976  -2.2416  -1.7988   2.7068   3.7698

          k = 0.2000 0.0000 0.0000 ( 10403 PWs)   bands (ev):

   -13.6626  -6.2288  -5.5377  -4.8034  -0.1437  -0.0365   0.0709   1.6678

          k = 0.3000 0.0577 0.0000 ( 10400 PWs)   bands (ev):

   -13.2069  -7.4904  -5.3893  -5.1913  -0.5766  -0.1699   1.2455   1.5474

          k = 0.4000 0.1155 0.0000 ( 10417 PWs)   bands (ev):

   -12.5559  -8.8319  -5.8179  -4.5864  -1.2402  -0.7476   1.8144   2.6908

          k = 0.5000 0.1732 0.0000 ( 10419 PWs)   bands (ev):

   -11.8470  -9.9120  -6.0400  -3.9271  -2.0807  -1.0340   2.3774   2.9913

          k =-0.4000-0.3464 0.0000 ( 10419 PWs)   bands (ev):

   -11.8470  -9.9119  -6.0400  -3.9272  -2.0807  -1.0340   2.3774   2.9913

          k =-0.3000-0.2887 0.0000 ( 10417 PWs)   bands (ev):

   -12.5559  -8.8319  -5.8180  -4.5864  -1.2402  -0.7475   1.8143   2.6900

          k =-0.2000-0.2309 0.0000 ( 10402 PWs)   bands (ev):

   -13.2069  -7.4903  -5.3893  -5.1913  -0.5765  -0.1698   1.2459   1.5476

          k =-0.1000-0.1732 0.0000 ( 10403 PWs)   bands (ev):

   -13.6626  -6.2289  -5.5377  -4.8034  -0.1438  -0.0360   0.0709   1.6092

          k = 0.0000-0.1155 0.0000 ( 10387 PWs)   bands (ev):

   -13.8946  -5.9770  -4.9788  -4.3678  -0.5619  -0.2091   0.3038   0.5101

          k = 0.4000 0.0000 0.0000 ( 10380 PWs)   bands (ev):

   -12.6545  -8.4982  -6.1943  -4.6736  -0.9297   0.7791   1.0427   1.8115

          k = 0.5000 0.0577 0.0000 ( 10397 PWs)   bands (ev):

   -11.9393  -9.5505  -6.7247  -3.9957  -1.7857   0.6268   1.8255   2.5288

          k = 0.6000 0.1155 0.0000 ( 10380 PWs)   bands (ev):

   -11.4062 -10.2110  -6.8986  -3.4995  -2.3632   0.5338   1.6338   3.3221

          k =-0.3000-0.4041 0.0000 ( 10401 PWs)   bands (ev):

   -11.9393  -9.5504  -6.7248  -3.9957  -1.7856   0.6268   1.8255   2.5286

          k =-0.2000-0.3464 0.0000 ( 10380 PWs)   bands (ev):

   -12.6546  -8.4981  -6.1943  -4.6737  -0.9297   0.7793   1.0432   1.8115

          k =-0.1000-0.2887 0.0000 ( 10400 PWs)   bands (ev):

   -13.2069  -7.4904  -5.3892  -5.1913  -0.5763  -0.1698   1.2457   1.5474

          k = 0.0000-0.2309 0.0000 ( 10396 PWs)   bands (ev):

   -13.5478  -6.6370  -5.4976  -4.7892  -0.9492  -0.0781   1.5343   1.5970

          k = 0.6000 0.0000 0.0000 ( 10398 PWs)   bands (ev):

   -11.2026 -10.2983  -7.2872  -3.3012  -2.4635   1.2473   2.2780   2.6847

          k = 0.7000 0.0577 0.0000 ( 10398 PWs)   bands (ev):

   -11.2027 -10.2982  -7.2871  -3.3013  -2.4634   1.2473   2.2782   2.6850

          k =-0.2000-0.4619 0.0000 ( 10399 PWs)   bands (ev):

   -11.9394  -9.5504  -6.7247  -3.9958  -1.7856   0.6272   1.8256   2.5286

          k =-0.1000-0.4041 0.0000 ( 10417 PWs)   bands (ev):

   -12.5560  -8.8319  -5.8178  -4.5865  -1.2402  -0.7473   1.8143   2.6899

          k =-0.0000-0.3464 0.0000 ( 10390 PWs)   bands (ev):

   -12.9867  -8.1101  -5.1907  -5.0028  -1.4528  -0.5320   1.4713   3.0016

          k = 0.8000 0.0000 0.0000 ( 10380 PWs)   bands (ev):

   -11.4064 -10.2108  -6.8985  -3.4996  -2.3631   0.5342   1.6339   3.3222

          k =-0.1000-0.5196 0.0000 ( 10419 PWs)   bands (ev):

   -11.8471  -9.9119  -6.0398  -3.9273  -2.0807  -1.0336   2.3774   2.9913

          k = 0.0000-0.4619 0.0000 ( 10418 PWs)   bands (ev):

   -12.2717  -9.4182  -5.4589  -4.3385  -1.8531  -1.4761   2.0811   3.3458

          k =-1.0000 0.0000 0.0000 ( 10434 PWs)   bands (ev):

   -11.7795 -10.1126  -5.5518  -3.8977  -2.2416  -1.7985   2.7067   3.7728

     the Fermi energy is    -2.8824 ev

!    total energy              =     -93.35960501 Ry

     total all-electron energy =     -1160.051335 Ry
     estimated scf accuracy    <          5.2E-10 Ry
     smearing contrib. (-TS)   =      -0.00000005 Ry
     internal energy E=F+TS    =     -93.35960496 Ry

     The total energy is F=E-TS. E is the sum of the following terms:
     one-electron contribution =     -80.75480355 Ry
     hartree contribution      =      41.59864998 Ry
     xc contribution           =     -12.15075424 Ry
     ewald contribution        =      29.13615740 Ry
     one-center paw contrib.   =     -71.18885455 Ry

     convergence has been achieved in   8 iterations

     Writing all to output data dir ./silicene.save/

     init_run     :     10.36s CPU      7.49s WALL (       1 calls)
     electrons    :    216.71s CPU    137.91s WALL (       1 calls)

     Called by init_run:
     wfcinit      :      6.88s CPU      4.24s WALL (       1 calls)
     potinit      :      1.02s CPU      0.80s WALL (       1 calls)
     hinit0       :      1.90s CPU      2.01s WALL (       1 calls)

     Called by electrons:
     c_bands      :    178.64s CPU    114.50s WALL (       9 calls)
     sum_band     :     29.46s CPU     18.32s WALL (       9 calls)
     v_of_rho     :      1.13s CPU      0.63s WALL (       9 calls)
     newd         :      3.94s CPU      2.67s WALL (       9 calls)
     PAW_pot      :      4.49s CPU      2.55s WALL (       9 calls)
     mix_rho      :      0.16s CPU      0.09s WALL (       9 calls)

     Called by c_bands:
     init_us_2    :      3.45s CPU      2.21s WALL (     589 calls)
     init_us_2:cp :      3.45s CPU      2.20s WALL (     589 calls)
     cegterg      :    169.69s CPU    109.08s WALL (     279 calls)

     Called by *egterg:
     cdiaghg      :      0.41s CPU      0.24s WALL (    1429 calls)
     h_psi        :    132.93s CPU     83.49s WALL (    1491 calls)
     s_psi        :      5.83s CPU      3.87s WALL (    1491 calls)
     g_psi        :      3.99s CPU      2.82s WALL (    1181 calls)

     Called by h_psi:
     h_psi:calbec :     12.13s CPU      7.29s WALL (    1491 calls)
     vloc_psi     :    115.23s CPU     72.66s WALL (    1491 calls)
     add_vuspsi   :      3.11s CPU      1.74s WALL (    1491 calls)

     General routines
     calbec       :     14.71s CPU      8.79s WALL (    1770 calls)
     fft          :      1.44s CPU      1.48s WALL (     100 calls)
     ffts         :      0.04s CPU      0.02s WALL (       9 calls)
     fftw         :    122.28s CPU     76.47s WALL (   15434 calls)

     Parallel routines

     PWSCF        :   3m47.76s CPU   2m26.15s WALL


   This run was terminated on:  17:45:27  12Jul2023            

=------------------------------------------------------------------------------=
   JOB DONE.
=------------------------------------------------------------------------------=
