### Running on host: qmobile

     Program PWSCF v.7.0 starts on 12Jul2023 at 17:40:50 

     This program is part of the open-source Quantum ESPRESSO suite
     for quantum simulation of materials; please cite
         "P. Giannozzi et al., J. Phys.:Condens. Matter 21 395502 (2009);
         "P. Giannozzi et al., J. Phys.:Condens. Matter 29 465901 (2017);
         "P. Giannozzi et al., J. Chem. Phys. 152 154105 (2020);
          URL http://www.quantum-espresso.org", 
     in publications or presentations arising from this work. More details at
     http://www.quantum-espresso.org/quote

     Parallel version (MPI & OpenMP), running on       2 processor cores
     Number of MPI processes:                 1
     Threads/MPI process:                     2

     MPI processes distributed on     1 nodes
     89813 MiB available memory on the printing compute node when the environment starts

     Reading input from silicene_scf_ecutrho-100.in

     Current dimensions of program PWSCF are:
     Max number of different atomic species (ntypx) = 10
     Max number of k-points (npk) =  40000
     Max angular momentum in pseudopotentials (lmaxx) =  4
     file Si.pbe-n-kjpaw_psl.1.0.0.UPF: wavefunction(s)  3S 3P renormalized
     Message from routine set_cutoff:
     ecutrho < 4*ecutwfc, are you sure?

     Subspace diagonalization in iterative solution of the eigenvalue problem:
     a serial algorithm will be used


     G-vector sticks info
     --------------------
     sticks:   dense  smooth     PW     G-vecs:    dense   smooth      PW
     Sum         367     367    235                29515    29515   14669

     Using Slab Decomposition



     bravais-lattice index     =           -9
     lattice parameter (alat)  =       7.2962  a.u.
     unit-cell volume          =    1742.4604 (a.u.)^3
     number of atoms/cell      =            2
     number of atomic types    =            1
     number of electrons       =         8.00
     number of Kohn-Sham states=            8
     kinetic-energy cutoff     =      50.0000  Ry
     charge density cutoff     =     100.0000  Ry
     scf convergence threshold =      1.0E-08
     mixing beta               =       0.7000
     number of iterations used =            8  plain     mixing
     Exchange-correlation= SLA  PW   PBX  PBC
                           (   1   4   3   4   0   0   0)

     celldm(1)=   7.296200  celldm(2)=   1.732100  celldm(3)=   5.180000
     celldm(4)=   0.000000  celldm(5)=   0.000000  celldm(6)=   0.000000

     crystal axes: (cart. coord. in units of alat)
               a(1) = (   0.500000  -0.866050   0.000000 )  
               a(2) = (   0.500000   0.866050   0.000000 )  
               a(3) = (   0.000000   0.000000   5.180000 )  

     reciprocal axes: (cart. coord. in units 2 pi/alat)
               b(1) = (  1.000000 -0.577334  0.000000 )  
               b(2) = (  1.000000  0.577334 -0.000000 )  
               b(3) = ( -0.000000  0.000000  0.193050 )  


     PseudoPot. # 1 for Si read from file:
     ../pseudos/Si.pbe-n-kjpaw_psl.1.0.0.UPF
     MD5 check sum: c39c59da582df4a0d9f10159256ea34e
     Pseudo is Projector augmented-wave + core cor, Zval =  4.0
     Generated using &quot;atomic&quot; code by A. Dal Corso  v.6.3
     Shape of augmentation charge: PSQ
     Using radial grid of 1141 points,  6 beta functions with: 
                l(1) =   0
                l(2) =   0
                l(3) =   1
                l(4) =   1
                l(5) =   2
                l(6) =   2
     Q(r) pseudized with 0 coefficients 


     atomic species   valence    mass     pseudopotential
        Si             4.00    28.08550     Si( 1.00)

      2 Sym. Ops. (no inversion) found



   Cartesian axes

     site n.     atom                  positions (alat units)
         1           Si  tau(   1) = (   0.5000000  -0.2886833   2.0476077  )
         2           Si  tau(   2) = (   0.5000000   0.2886833   2.1611423  )

     number of k points=    31  Gaussian smearing, width (Ry)=  0.0100
                       cart. coord. in units 2pi/alat
        k(    1) = (   0.0000000   0.0000000   0.0000000), wk =   0.0200000
        k(    2) = (   0.1000000   0.0577334   0.0000000), wk =   0.0800000
        k(    3) = (   0.2000000   0.1154668   0.0000000), wk =   0.0800000
        k(    4) = (   0.3000000   0.1732002   0.0000000), wk =   0.0800000
        k(    5) = (   0.4000000   0.2309335   0.0000000), wk =   0.0800000
        k(    6) = (  -0.5000000  -0.2886669   0.0000000), wk =   0.0400000
        k(    7) = (   0.2000000   0.0000000   0.0000000), wk =   0.0400000
        k(    8) = (   0.3000000   0.0577334   0.0000000), wk =   0.0800000
        k(    9) = (   0.4000000   0.1154668   0.0000000), wk =   0.0800000
        k(   10) = (   0.5000000   0.1732002   0.0000000), wk =   0.0800000
        k(   11) = (  -0.4000000  -0.3464003   0.0000000), wk =   0.0800000
        k(   12) = (  -0.3000000  -0.2886669   0.0000000), wk =   0.0800000
        k(   13) = (  -0.2000000  -0.2309335   0.0000000), wk =   0.0800000
        k(   14) = (  -0.1000000  -0.1732002   0.0000000), wk =   0.0800000
        k(   15) = (   0.0000000  -0.1154668   0.0000000), wk =   0.0400000
        k(   16) = (   0.4000000   0.0000000   0.0000000), wk =   0.0400000
        k(   17) = (   0.5000000   0.0577334   0.0000000), wk =   0.0800000
        k(   18) = (   0.6000000   0.1154668   0.0000000), wk =   0.0800000
        k(   19) = (  -0.3000000  -0.4041337   0.0000000), wk =   0.0800000
        k(   20) = (  -0.2000000  -0.3464003   0.0000000), wk =   0.0800000
        k(   21) = (  -0.1000000  -0.2886669   0.0000000), wk =   0.0800000
        k(   22) = (   0.0000000  -0.2309335   0.0000000), wk =   0.0400000
        k(   23) = (   0.6000000   0.0000000   0.0000000), wk =   0.0400000
        k(   24) = (   0.7000000   0.0577334   0.0000000), wk =   0.0800000
        k(   25) = (  -0.2000000  -0.4618671   0.0000000), wk =   0.0800000
        k(   26) = (  -0.1000000  -0.4041337   0.0000000), wk =   0.0800000
        k(   27) = (  -0.0000000  -0.3464003   0.0000000), wk =   0.0400000
        k(   28) = (   0.8000000   0.0000000   0.0000000), wk =   0.0400000
        k(   29) = (  -0.1000000  -0.5196005   0.0000000), wk =   0.0800000
        k(   30) = (   0.0000000  -0.4618671   0.0000000), wk =   0.0400000
        k(   31) = (  -1.0000000   0.0000000   0.0000000), wk =   0.0200000

     Dense  grid:    29515 G-vectors     FFT dimensions: (  24,  24, 125)

     Estimated max dynamical RAM per process >     149.04 MB

     Check: negative core charge=   -0.000006

     Initial potential from superposition of free atoms

     starting charge       7.9989, renormalised to       8.0000

     negative rho (up, down):  5.375E-04 0.000E+00
     Starting wfcs are    8 randomized atomic wfcs
     Checking if some PAW data can be deallocated... 

     total cpu time spent up to now is        6.1 secs

     per-process dynamical memory:    76.4 Mb

     Self-consistent Calculation

     iteration #  1     ecut=    50.00 Ry     beta= 0.70
     Davidson diagonalization with overlap
     ethr =  1.00E-02,  avg # of iterations =  4.6

     Threshold (ethr) on eigenvalues was too large:
     Diagonalizing with lowered threshold

     Davidson diagonalization with overlap
     ethr =  7.47E-04,  avg # of iterations =  1.4

     negative rho (up, down):  7.068E-04 0.000E+00

     total cpu time spent up to now is       33.2 secs

     total energy              =     -93.35302253 Ry
     estimated scf accuracy    <       0.06559642 Ry

     iteration #  2     ecut=    50.00 Ry     beta= 0.70
     Davidson diagonalization with overlap
     ethr =  8.20E-04,  avg # of iterations =  3.5

     negative rho (up, down):  7.665E-04 0.000E+00

     total cpu time spent up to now is       45.7 secs

     total energy              =     -93.35964300 Ry
     estimated scf accuracy    <       0.00191147 Ry

     iteration #  3     ecut=    50.00 Ry     beta= 0.70
     Davidson diagonalization with overlap
     c_bands:  1 eigenvalues not converged
     c_bands:  1 eigenvalues not converged
     ethr =  2.39E-05,  avg # of iterations =  9.8

     negative rho (up, down):  7.823E-04 0.000E+00

     total cpu time spent up to now is       63.3 secs

     total energy              =     -93.35984616 Ry
     estimated scf accuracy    <       0.00013826 Ry

     iteration #  4     ecut=    50.00 Ry     beta= 0.70
     Davidson diagonalization with overlap
     c_bands:  1 eigenvalues not converged
     c_bands:  1 eigenvalues not converged
     c_bands:  1 eigenvalues not converged
     c_bands:  1 eigenvalues not converged
     c_bands:  1 eigenvalues not converged
     c_bands:  1 eigenvalues not converged
     ethr =  1.73E-06,  avg # of iterations = 10.2

     negative rho (up, down):  7.825E-04 0.000E+00

     total cpu time spent up to now is       83.7 secs

     total energy              =     -93.35983948 Ry
     estimated scf accuracy    <       0.00022053 Ry

     iteration #  5     ecut=    50.00 Ry     beta= 0.70
     Davidson diagonalization with overlap
     c_bands:  1 eigenvalues not converged
     c_bands:  1 eigenvalues not converged
     c_bands:  1 eigenvalues not converged
     ethr =  1.73E-06,  avg # of iterations =  5.0

     negative rho (up, down):  7.814E-04 0.000E+00

     total cpu time spent up to now is       97.9 secs

     total energy              =     -93.35987449 Ry
     estimated scf accuracy    <       0.00000119 Ry

     iteration #  6     ecut=    50.00 Ry     beta= 0.70
     Davidson diagonalization with overlap
     ethr =  1.49E-08,  avg # of iterations =  2.5

     negative rho (up, down):  7.808E-04 0.000E+00

     total cpu time spent up to now is      109.2 secs

     total energy              =     -93.35987505 Ry
     estimated scf accuracy    <       0.00000013 Ry

     iteration #  7     ecut=    50.00 Ry     beta= 0.70
     Davidson diagonalization with overlap
     ethr =  1.58E-09,  avg # of iterations =  2.1

     negative rho (up, down):  7.806E-04 0.000E+00

     total cpu time spent up to now is      119.4 secs

     total energy              =     -93.35987507 Ry
     estimated scf accuracy    <       0.00000002 Ry

     iteration #  8     ecut=    50.00 Ry     beta= 0.70
     Davidson diagonalization with overlap
     ethr =  2.18E-10,  avg # of iterations =  2.1

     negative rho (up, down):  7.806E-04 0.000E+00

     total cpu time spent up to now is      129.9 secs

     End of self-consistent calculation

          k = 0.0000 0.0000 0.0000 ( 10447 PWs)   bands (ev):

   -14.0140  -6.0558  -4.1687  -4.1686  -0.9888  -0.3236   0.0794   0.0798

          k = 0.1000 0.0577 0.0000 ( 10387 PWs)   bands (ev):

   -13.8971  -5.9799  -4.9810  -4.3700  -0.5650  -0.2398   0.3009   0.5068

          k = 0.2000 0.1155 0.0000 ( 10396 PWs)   bands (ev):

   -13.5502  -6.6391  -5.5006  -4.7916  -0.9523  -0.0977   1.4039   1.5939

          k = 0.3000 0.1732 0.0000 ( 10390 PWs)   bands (ev):

   -12.9891  -8.1123  -5.1932  -5.0057  -1.4560  -0.5367   1.4164   2.2560

          k = 0.4000 0.2309 0.0000 ( 10418 PWs)   bands (ev):

   -12.2740  -9.4206  -5.4614  -4.3413  -1.8562  -1.4794   2.0405   3.1467

          k =-0.5000-0.2887 0.0000 ( 10434 PWs)   bands (ev):

   -11.7817 -10.1152  -5.5544  -3.9003  -2.2448  -1.8018   2.6844   3.4795

          k = 0.2000 0.0000 0.0000 ( 10403 PWs)   bands (ev):

   -13.6650  -6.2311  -5.5407  -4.8057  -0.1609  -0.0394   0.0603   1.3728

          k = 0.3000 0.0577 0.0000 ( 10400 PWs)   bands (ev):

   -13.2093  -7.4927  -5.3916  -5.1943  -0.5797  -0.1780   1.2268   1.4932

          k = 0.4000 0.1155 0.0000 ( 10417 PWs)   bands (ev):

   -12.5583  -8.8343  -5.8203  -4.5893  -1.2431  -0.7508   1.7677   2.6328

          k = 0.5000 0.1732 0.0000 ( 10419 PWs)   bands (ev):

   -11.8494  -9.9144  -6.0424  -3.9299  -2.0838  -1.0369   2.3592   2.9581

          k =-0.4000-0.3464 0.0000 ( 10419 PWs)   bands (ev):

   -11.8494  -9.9144  -6.0424  -3.9299  -2.0837  -1.0368   2.3592   2.9581

          k =-0.3000-0.2887 0.0000 ( 10417 PWs)   bands (ev):

   -12.5583  -8.8342  -5.8204  -4.5893  -1.2431  -0.7507   1.7676   2.6336

          k =-0.2000-0.2309 0.0000 ( 10402 PWs)   bands (ev):

   -13.2094  -7.4926  -5.3917  -5.1943  -0.5796  -0.1779   1.2272   1.4935

          k =-0.1000-0.1732 0.0000 ( 10403 PWs)   bands (ev):

   -13.6650  -6.2311  -5.5407  -4.8057  -0.1609  -0.0389   0.0604   1.3731

          k = 0.0000-0.1155 0.0000 ( 10387 PWs)   bands (ev):

   -13.8971  -5.9799  -4.9811  -4.3699  -0.5648  -0.2398   0.3005   0.5070

          k = 0.4000 0.0000 0.0000 ( 10380 PWs)   bands (ev):

   -12.6569  -8.5005  -6.1967  -4.6766  -0.9328   0.7754   1.0397   1.7588

          k = 0.5000 0.0577 0.0000 ( 10397 PWs)   bands (ev):

   -11.9417  -9.5528  -6.7272  -3.9985  -1.7884   0.6239   1.8179   2.4883

          k = 0.6000 0.1155 0.0000 ( 10380 PWs)   bands (ev):

   -11.4086 -10.2134  -6.9012  -3.5022  -2.3660   0.5310   1.6274   3.2962

          k =-0.3000-0.4041 0.0000 ( 10401 PWs)   bands (ev):

   -11.9418  -9.5527  -6.7273  -3.9986  -1.7884   0.6240   1.8179   2.4880

          k =-0.2000-0.3464 0.0000 ( 10380 PWs)   bands (ev):

   -12.6570  -8.5004  -6.1968  -4.6766  -0.9328   0.7756   1.0402   1.7587

          k =-0.1000-0.2887 0.0000 ( 10400 PWs)   bands (ev):

   -13.2094  -7.4927  -5.3916  -5.1943  -0.5794  -0.1779   1.2270   1.4933

          k = 0.0000-0.2309 0.0000 ( 10396 PWs)   bands (ev):

   -13.5502  -6.6392  -5.5006  -4.7914  -0.9521  -0.0977   1.4039   1.5940

          k = 0.6000 0.0000 0.0000 ( 10398 PWs)   bands (ev):

   -11.2050 -10.3007  -7.2897  -3.3039  -2.4662   1.2412   2.2751   2.6813

          k = 0.7000 0.0577 0.0000 ( 10398 PWs)   bands (ev):

   -11.2051 -10.3006  -7.2897  -3.3040  -2.4661   1.2412   2.2752   2.6816

          k =-0.2000-0.4619 0.0000 ( 10399 PWs)   bands (ev):

   -11.9418  -9.5527  -6.7272  -3.9986  -1.7884   0.6244   1.8180   2.4880

          k =-0.1000-0.4041 0.0000 ( 10417 PWs)   bands (ev):

   -12.5584  -8.8343  -5.8202  -4.5894  -1.2431  -0.7505   1.7676   2.6341

          k =-0.0000-0.3464 0.0000 ( 10390 PWs)   bands (ev):

   -12.9892  -8.1124  -5.1930  -5.0058  -1.4557  -0.5368   1.4163   2.2557

          k = 0.8000 0.0000 0.0000 ( 10380 PWs)   bands (ev):

   -11.4088 -10.2132  -6.9011  -3.5023  -2.3660   0.5315   1.6275   3.2963

          k =-0.1000-0.5196 0.0000 ( 10419 PWs)   bands (ev):

   -11.8495  -9.9143  -6.0422  -3.9300  -2.0837  -1.0365   2.3592   2.9582

          k = 0.0000-0.4619 0.0000 ( 10418 PWs)   bands (ev):

   -12.2741  -9.4206  -5.4612  -4.3414  -1.8560  -1.4793   2.0404   3.1478

          k =-1.0000 0.0000 0.0000 ( 10434 PWs)   bands (ev):

   -11.7819 -10.1151  -5.5542  -3.9004  -2.2448  -1.8015   2.6843   3.7701

     the Fermi energy is    -2.8851 ev

!    total energy              =     -93.35987508 Ry

     total all-electron energy =     -1160.051605 Ry
     estimated scf accuracy    <          5.0E-10 Ry
     smearing contrib. (-TS)   =      -0.00000005 Ry
     internal energy E=F+TS    =     -93.35987503 Ry

     The total energy is F=E-TS. E is the sum of the following terms:
     one-electron contribution =     -80.75276462 Ry
     hartree contribution      =      41.59633029 Ry
     xc contribution           =     -12.15077067 Ry
     ewald contribution        =      29.13615742 Ry
     one-center paw contrib.   =     -71.18882744 Ry

     convergence has been achieved in   8 iterations

     Writing all to output data dir ./silicene.save/

     init_run     :      8.62s CPU      5.86s WALL (       1 calls)
     electrons    :    189.02s CPU    123.75s WALL (       1 calls)

     Called by init_run:
     wfcinit      :      6.01s CPU      4.06s WALL (       1 calls)
     potinit      :      0.77s CPU      0.44s WALL (       1 calls)
     hinit0       :      1.33s CPU      0.98s WALL (       1 calls)

     Called by electrons:
     c_bands      :    157.17s CPU    103.75s WALL (       9 calls)
     sum_band     :     25.14s CPU     16.10s WALL (       9 calls)
     v_of_rho     :      0.65s CPU      0.37s WALL (       9 calls)
     newd         :      2.30s CPU      1.58s WALL (       9 calls)
     PAW_pot      :      4.70s CPU      2.57s WALL (       9 calls)
     mix_rho      :      0.06s CPU      0.04s WALL (       9 calls)

     Called by c_bands:
     init_us_2    :      3.50s CPU      2.21s WALL (     589 calls)
     init_us_2:cp :      3.49s CPU      2.21s WALL (     589 calls)
     cegterg      :    148.13s CPU     98.22s WALL (     279 calls)

     Called by *egterg:
     cdiaghg      :      0.48s CPU      0.27s WALL (    1526 calls)
     h_psi        :    112.71s CPU     73.64s WALL (    1588 calls)
     s_psi        :      5.70s CPU      3.85s WALL (    1588 calls)
     g_psi        :      3.61s CPU      2.66s WALL (    1278 calls)

     Called by h_psi:
     h_psi:calbec :     12.41s CPU      7.69s WALL (    1588 calls)
     vloc_psi     :     94.70s CPU     62.27s WALL (    1588 calls)
     add_vuspsi   :      3.29s CPU      2.03s WALL (    1588 calls)

     General routines
     calbec       :     15.16s CPU      9.32s WALL (    1867 calls)
     fft          :      0.89s CPU      0.58s WALL (     100 calls)
     ffts         :      0.06s CPU      0.04s WALL (       9 calls)
     fftw         :    102.98s CPU     67.10s WALL (   15676 calls)

     Parallel routines

     PWSCF        :   3m18.22s CPU   2m10.23s WALL


   This run was terminated on:  17:43: 1  12Jul2023            

=------------------------------------------------------------------------------=
   JOB DONE.
=------------------------------------------------------------------------------=
