### Running on host: qmobile

     Program PWSCF v.7.0 starts on 12Jul2023 at 17:51: 2 

     This program is part of the open-source Quantum ESPRESSO suite
     for quantum simulation of materials; please cite
         "P. Giannozzi et al., J. Phys.:Condens. Matter 21 395502 (2009);
         "P. Giannozzi et al., J. Phys.:Condens. Matter 29 465901 (2017);
         "P. Giannozzi et al., J. Chem. Phys. 152 154105 (2020);
          URL http://www.quantum-espresso.org", 
     in publications or presentations arising from this work. More details at
     http://www.quantum-espresso.org/quote

     Parallel version (MPI & OpenMP), running on       2 processor cores
     Number of MPI processes:                 1
     Threads/MPI process:                     2

     MPI processes distributed on     1 nodes
     89810 MiB available memory on the printing compute node when the environment starts

     Reading input from silicene_scf_ecutrho-300.in

     Current dimensions of program PWSCF are:
     Max number of different atomic species (ntypx) = 10
     Max number of k-points (npk) =  40000
     Max angular momentum in pseudopotentials (lmaxx) =  4
     file Si.pbe-n-kjpaw_psl.1.0.0.UPF: wavefunction(s)  3S 3P renormalized

     Subspace diagonalization in iterative solution of the eigenvalue problem:
     a serial algorithm will be used


     G-vector sticks info
     --------------------
     sticks:   dense  smooth     PW     G-vecs:    dense   smooth      PW
     Sum        1099     745    235               152591    83451   14669

     Using Slab Decomposition



     bravais-lattice index     =           -9
     lattice parameter (alat)  =       7.2962  a.u.
     unit-cell volume          =    1742.4604 (a.u.)^3
     number of atoms/cell      =            2
     number of atomic types    =            1
     number of electrons       =         8.00
     number of Kohn-Sham states=            8
     kinetic-energy cutoff     =      50.0000  Ry
     charge density cutoff     =     300.0000  Ry
     scf convergence threshold =      1.0E-08
     mixing beta               =       0.7000
     number of iterations used =            8  plain     mixing
     Exchange-correlation= SLA  PW   PBX  PBC
                           (   1   4   3   4   0   0   0)

     celldm(1)=   7.296200  celldm(2)=   1.732100  celldm(3)=   5.180000
     celldm(4)=   0.000000  celldm(5)=   0.000000  celldm(6)=   0.000000

     crystal axes: (cart. coord. in units of alat)
               a(1) = (   0.500000  -0.866050   0.000000 )  
               a(2) = (   0.500000   0.866050   0.000000 )  
               a(3) = (   0.000000   0.000000   5.180000 )  

     reciprocal axes: (cart. coord. in units 2 pi/alat)
               b(1) = (  1.000000 -0.577334  0.000000 )  
               b(2) = (  1.000000  0.577334 -0.000000 )  
               b(3) = ( -0.000000  0.000000  0.193050 )  


     PseudoPot. # 1 for Si read from file:
     ../pseudos/Si.pbe-n-kjpaw_psl.1.0.0.UPF
     MD5 check sum: c39c59da582df4a0d9f10159256ea34e
     Pseudo is Projector augmented-wave + core cor, Zval =  4.0
     Generated using &quot;atomic&quot; code by A. Dal Corso  v.6.3
     Shape of augmentation charge: PSQ
     Using radial grid of 1141 points,  6 beta functions with: 
                l(1) =   0
                l(2) =   0
                l(3) =   1
                l(4) =   1
                l(5) =   2
                l(6) =   2
     Q(r) pseudized with 0 coefficients 


     atomic species   valence    mass     pseudopotential
        Si             4.00    28.08550     Si( 1.00)

      2 Sym. Ops. (no inversion) found



   Cartesian axes

     site n.     atom                  positions (alat units)
         1           Si  tau(   1) = (   0.5000000  -0.2886833   2.0476077  )
         2           Si  tau(   2) = (   0.5000000   0.2886833   2.1611423  )

     number of k points=    31  Gaussian smearing, width (Ry)=  0.0100
                       cart. coord. in units 2pi/alat
        k(    1) = (   0.0000000   0.0000000   0.0000000), wk =   0.0200000
        k(    2) = (   0.1000000   0.0577334   0.0000000), wk =   0.0800000
        k(    3) = (   0.2000000   0.1154668   0.0000000), wk =   0.0800000
        k(    4) = (   0.3000000   0.1732002   0.0000000), wk =   0.0800000
        k(    5) = (   0.4000000   0.2309335   0.0000000), wk =   0.0800000
        k(    6) = (  -0.5000000  -0.2886669   0.0000000), wk =   0.0400000
        k(    7) = (   0.2000000   0.0000000   0.0000000), wk =   0.0400000
        k(    8) = (   0.3000000   0.0577334   0.0000000), wk =   0.0800000
        k(    9) = (   0.4000000   0.1154668   0.0000000), wk =   0.0800000
        k(   10) = (   0.5000000   0.1732002   0.0000000), wk =   0.0800000
        k(   11) = (  -0.4000000  -0.3464003   0.0000000), wk =   0.0800000
        k(   12) = (  -0.3000000  -0.2886669   0.0000000), wk =   0.0800000
        k(   13) = (  -0.2000000  -0.2309335   0.0000000), wk =   0.0800000
        k(   14) = (  -0.1000000  -0.1732002   0.0000000), wk =   0.0800000
        k(   15) = (   0.0000000  -0.1154668   0.0000000), wk =   0.0400000
        k(   16) = (   0.4000000   0.0000000   0.0000000), wk =   0.0400000
        k(   17) = (   0.5000000   0.0577334   0.0000000), wk =   0.0800000
        k(   18) = (   0.6000000   0.1154668   0.0000000), wk =   0.0800000
        k(   19) = (  -0.3000000  -0.4041337   0.0000000), wk =   0.0800000
        k(   20) = (  -0.2000000  -0.3464003   0.0000000), wk =   0.0800000
        k(   21) = (  -0.1000000  -0.2886669   0.0000000), wk =   0.0800000
        k(   22) = (   0.0000000  -0.2309335   0.0000000), wk =   0.0400000
        k(   23) = (   0.6000000   0.0000000   0.0000000), wk =   0.0400000
        k(   24) = (   0.7000000   0.0577334   0.0000000), wk =   0.0800000
        k(   25) = (  -0.2000000  -0.4618671   0.0000000), wk =   0.0800000
        k(   26) = (  -0.1000000  -0.4041337   0.0000000), wk =   0.0800000
        k(   27) = (  -0.0000000  -0.3464003   0.0000000), wk =   0.0400000
        k(   28) = (   0.8000000   0.0000000   0.0000000), wk =   0.0400000
        k(   29) = (  -0.1000000  -0.5196005   0.0000000), wk =   0.0800000
        k(   30) = (   0.0000000  -0.4618671   0.0000000), wk =   0.0400000
        k(   31) = (  -1.0000000   0.0000000   0.0000000), wk =   0.0200000

     Dense  grid:   152591 G-vectors     FFT dimensions: (  45,  45, 216)

     Smooth grid:    83451 G-vectors     FFT dimensions: (  36,  36, 180)

     Estimated max dynamical RAM per process >     578.43 MB

     Initial potential from superposition of free atoms

     starting charge       7.9989, renormalised to       8.0000

     negative rho (up, down):  1.340E-05 0.000E+00
     Starting wfcs are    8 randomized atomic wfcs
     Checking if some PAW data can be deallocated... 

     total cpu time spent up to now is       11.5 secs

     per-process dynamical memory:   124.5 Mb

     Self-consistent Calculation

     iteration #  1     ecut=    50.00 Ry     beta= 0.70
     Davidson diagonalization with overlap
     ethr =  1.00E-02,  avg # of iterations =  4.6

     Threshold (ethr) on eigenvalues was too large:
     Diagonalizing with lowered threshold

     Davidson diagonalization with overlap
     ethr =  7.47E-04,  avg # of iterations =  1.4

     negative rho (up, down):  4.464E-06 0.000E+00

     total cpu time spent up to now is       45.8 secs

     total energy              =     -93.35271274 Ry
     estimated scf accuracy    <       0.06558703 Ry

     iteration #  2     ecut=    50.00 Ry     beta= 0.70
     Davidson diagonalization with overlap
     ethr =  8.20E-04,  avg # of iterations =  2.9

     negative rho (up, down):  4.864E-06 0.000E+00

     total cpu time spent up to now is       61.9 secs

     total energy              =     -93.35930495 Ry
     estimated scf accuracy    <       0.00191394 Ry

     iteration #  3     ecut=    50.00 Ry     beta= 0.70
     Davidson diagonalization with overlap
     ethr =  2.39E-05,  avg # of iterations =  8.7

     negative rho (up, down):  5.792E-06 0.000E+00

     total cpu time spent up to now is       88.7 secs

     total energy              =     -93.35951335 Ry
     estimated scf accuracy    <       0.00013457 Ry

     iteration #  4     ecut=    50.00 Ry     beta= 0.70
     Davidson diagonalization with overlap
     c_bands:  1 eigenvalues not converged
     ethr =  1.68E-06,  avg # of iterations =  7.2

     negative rho (up, down):  5.790E-06 0.000E+00

     total cpu time spent up to now is      113.1 secs

     total energy              =     -93.35950835 Ry
     estimated scf accuracy    <       0.00019572 Ry

     iteration #  5     ecut=    50.00 Ry     beta= 0.70
     Davidson diagonalization with overlap
     ethr =  1.68E-06,  avg # of iterations =  1.8

     negative rho (up, down):  5.830E-06 0.000E+00

     total cpu time spent up to now is      127.5 secs

     total energy              =     -93.35953971 Ry
     estimated scf accuracy    <       0.00000122 Ry

     iteration #  6     ecut=    50.00 Ry     beta= 0.70
     Davidson diagonalization with overlap
     ethr =  1.53E-08,  avg # of iterations =  2.6

     negative rho (up, down):  5.854E-06 0.000E+00

     total cpu time spent up to now is      145.0 secs

     total energy              =     -93.35954033 Ry
     estimated scf accuracy    <       0.00000011 Ry

     iteration #  7     ecut=    50.00 Ry     beta= 0.70
     Davidson diagonalization with overlap
     ethr =  1.37E-09,  avg # of iterations =  2.2

     negative rho (up, down):  5.862E-06 0.000E+00

     total cpu time spent up to now is      161.6 secs

     total energy              =     -93.35954036 Ry
     estimated scf accuracy    <       0.00000001 Ry

     iteration #  8     ecut=    50.00 Ry     beta= 0.70
     Davidson diagonalization with overlap
     ethr =  1.61E-10,  avg # of iterations =  2.1

     negative rho (up, down):  5.859E-06 0.000E+00

     total cpu time spent up to now is      178.4 secs

     End of self-consistent calculation

          k = 0.0000 0.0000 0.0000 ( 10447 PWs)   bands (ev):

   -14.0110  -6.0523  -4.1660  -4.1659  -0.9860  -0.2766   0.0832   0.0836

          k = 0.1000 0.0577 0.0000 ( 10387 PWs)   bands (ev):

   -13.8941  -5.9765  -4.9782  -4.3672  -0.5619  -0.1970   0.3049   0.5106

          k = 0.2000 0.1155 0.0000 ( 10396 PWs)   bands (ev):

   -13.5473  -6.6364  -5.4971  -4.7887  -0.9490  -0.0712   1.5940   1.5975

          k = 0.3000 0.1732 0.0000 ( 10390 PWs)   bands (ev):

   -12.9862  -8.1095  -5.1902  -5.0023  -1.4526  -0.5310   1.4976   3.0021

          k = 0.4000 0.2309 0.0000 ( 10418 PWs)   bands (ev):

   -12.2711  -9.4177  -5.4584  -4.3380  -1.8528  -1.4757   2.0988   3.7615

          k =-0.5000-0.2887 0.0000 ( 10434 PWs)   bands (ev):

   -11.7788 -10.1122  -5.5514  -3.8972  -2.2411  -1.7984   2.7152   3.7712

          k = 0.2000 0.0000 0.0000 ( 10403 PWs)   bands (ev):

   -13.6621  -6.2283  -5.5372  -4.8028  -0.1378  -0.0362   0.0750   1.8207

          k = 0.3000 0.0577 0.0000 ( 10400 PWs)   bands (ev):

   -13.2064  -7.4899  -5.3886  -5.1908  -0.5760  -0.1677   1.2522   1.5770

          k = 0.4000 0.1155 0.0000 ( 10417 PWs)   bands (ev):

   -12.5554  -8.8314  -5.8173  -4.5860  -1.2398  -0.7471   1.8355   2.7084

          k = 0.5000 0.1732 0.0000 ( 10419 PWs)   bands (ev):

   -11.8465  -9.9115  -6.0393  -3.9267  -2.0803  -1.0335   2.3839   3.0062

          k =-0.4000-0.3464 0.0000 ( 10419 PWs)   bands (ev):

   -11.8465  -9.9114  -6.0394  -3.9268  -2.0803  -1.0335   2.3839   3.0062

          k =-0.3000-0.2887 0.0000 ( 10417 PWs)   bands (ev):

   -12.5554  -8.8314  -5.8173  -4.5860  -1.2397  -0.7470   1.8354   2.7085

          k =-0.2000-0.2309 0.0000 ( 10402 PWs)   bands (ev):

   -13.2064  -7.4898  -5.3887  -5.1908  -0.5759  -0.1676   1.2526   1.5771

          k =-0.1000-0.1732 0.0000 ( 10403 PWs)   bands (ev):

   -13.6621  -6.2284  -5.5372  -4.8028  -0.1378  -0.0357   0.0750   1.8217

          k = 0.0000-0.1155 0.0000 ( 10387 PWs)   bands (ev):

   -13.8941  -5.9765  -4.9783  -4.3671  -0.5616  -0.1970   0.3045   0.5108

          k = 0.4000 0.0000 0.0000 ( 10380 PWs)   bands (ev):

   -12.6540  -8.4977  -6.1936  -4.6732  -0.9292   0.7801   1.0432   1.8365

          k = 0.5000 0.0577 0.0000 ( 10397 PWs)   bands (ev):

   -11.9388  -9.5500  -6.7241  -3.9952  -1.7853   0.6273   1.8275   2.5462

          k = 0.6000 0.1155 0.0000 ( 10380 PWs)   bands (ev):

   -11.4057 -10.2105  -6.8980  -3.4991  -2.3627   0.5343   1.6353   3.3325

          k =-0.3000-0.4041 0.0000 ( 10401 PWs)   bands (ev):

   -11.9389  -9.5499  -6.7241  -3.9953  -1.7852   0.6274   1.8275   2.5461

          k =-0.2000-0.3464 0.0000 ( 10380 PWs)   bands (ev):

   -12.6541  -8.4976  -6.1936  -4.6732  -0.9292   0.7803   1.0437   1.8364

          k =-0.1000-0.2887 0.0000 ( 10400 PWs)   bands (ev):

   -13.2065  -7.4899  -5.3886  -5.1908  -0.5757  -0.1676   1.2524   1.5770

          k = 0.0000-0.2309 0.0000 ( 10396 PWs)   bands (ev):

   -13.5473  -6.6365  -5.4971  -4.7886  -0.9487  -0.0712   1.5938   1.5976

          k = 0.6000 0.0000 0.0000 ( 10398 PWs)   bands (ev):

   -11.2021 -10.2979  -7.2865  -3.3008  -2.4632   1.2487   2.2788   2.6852

          k = 0.7000 0.0577 0.0000 ( 10398 PWs)   bands (ev):

   -11.2023 -10.2977  -7.2865  -3.3009  -2.4631   1.2487   2.2790   2.6856

          k =-0.2000-0.4619 0.0000 ( 10399 PWs)   bands (ev):

   -11.9389  -9.5499  -6.7240  -3.9953  -1.7852   0.6278   1.8276   2.5461

          k =-0.1000-0.4041 0.0000 ( 10417 PWs)   bands (ev):

   -12.5555  -8.8314  -5.8171  -4.5860  -1.2397  -0.7468   1.8354   2.7085

          k =-0.0000-0.3464 0.0000 ( 10390 PWs)   bands (ev):

   -12.9863  -8.1096  -5.1900  -5.0024  -1.4524  -0.5311   1.4976   3.0022

          k = 0.8000 0.0000 0.0000 ( 10380 PWs)   bands (ev):

   -11.4059 -10.2104  -6.8979  -3.4992  -2.3627   0.5347   1.6354   3.3326

          k =-0.1000-0.5196 0.0000 ( 10419 PWs)   bands (ev):

   -11.8467  -9.9114  -6.0392  -3.9269  -2.0803  -1.0332   2.3839   3.0063

          k = 0.0000-0.4619 0.0000 ( 10418 PWs)   bands (ev):

   -12.2712  -9.4177  -5.4582  -4.3381  -1.8526  -1.4757   2.0987   3.7620

          k =-1.0000 0.0000 0.0000 ( 10434 PWs)   bands (ev):

   -11.7790 -10.1121  -5.5512  -3.8973  -2.2411  -1.7981   2.7151   3.7734

     the Fermi energy is    -2.8820 ev

!    total energy              =     -93.35954036 Ry

     total all-electron energy =     -1160.051270 Ry
     estimated scf accuracy    <          4.5E-10 Ry
     smearing contrib. (-TS)   =      -0.00000005 Ry
     internal energy E=F+TS    =     -93.35954031 Ry

     The total energy is F=E-TS. E is the sum of the following terms:
     one-electron contribution =     -80.75528339 Ry
     hartree contribution      =      41.59922401 Ry
     xc contribution           =     -12.15076543 Ry
     ewald contribution        =      29.13615744 Ry
     one-center paw contrib.   =     -71.18887293 Ry

     convergence has been achieved in   8 iterations

     Writing all to output data dir ./silicene.save/

     init_run     :     16.05s CPU     11.10s WALL (       1 calls)
     electrons    :    264.81s CPU    166.99s WALL (       1 calls)

     Called by init_run:
     wfcinit      :      8.29s CPU      4.93s WALL (       1 calls)
     potinit      :      2.79s CPU      1.94s WALL (       1 calls)
     hinit0       :      3.36s CPU      2.96s WALL (       1 calls)

     Called by electrons:
     c_bands      :    205.91s CPU    129.79s WALL (       9 calls)
     sum_band     :     42.37s CPU     27.17s WALL (       9 calls)
     v_of_rho     :      3.03s CPU      1.65s WALL (       9 calls)
     newd         :     10.37s CPU      6.95s WALL (       9 calls)
     PAW_pot      :      4.33s CPU      2.22s WALL (       9 calls)
     mix_rho      :      0.41s CPU      0.21s WALL (       9 calls)

     Called by c_bands:
     init_us_2    :      3.56s CPU      2.30s WALL (     589 calls)
     init_us_2:cp :      3.55s CPU      2.30s WALL (     589 calls)
     cegterg      :    196.94s CPU    124.38s WALL (     279 calls)

     Called by *egterg:
     cdiaghg      :      0.41s CPU      0.22s WALL (    1289 calls)
     h_psi        :    163.73s CPU    101.00s WALL (    1351 calls)
     s_psi        :      5.60s CPU      3.74s WALL (    1351 calls)
     g_psi        :      3.97s CPU      2.77s WALL (    1041 calls)

     Called by h_psi:
     h_psi:calbec :     11.52s CPU      6.88s WALL (    1351 calls)
     vloc_psi     :    147.29s CPU     91.00s WALL (    1351 calls)
     add_vuspsi   :      2.84s CPU      1.64s WALL (    1351 calls)

     General routines
     calbec       :     14.15s CPU      8.43s WALL (    1630 calls)
     fft          :      3.26s CPU      2.37s WALL (     116 calls)
     ffts         :      1.42s CPU      1.21s WALL (      18 calls)
     fftw         :    156.85s CPU     96.56s WALL (   15152 calls)
     interpolate  :      1.54s CPU      1.27s WALL (       9 calls)

     Parallel routines

     PWSCF        :   4m41.55s CPU   2m58.86s WALL


   This run was terminated on:  17:54: 1  12Jul2023            

=------------------------------------------------------------------------------=
   JOB DONE.
=------------------------------------------------------------------------------=
