### Running on host: qmobile

     Program PWSCF v.7.0 starts on 12Jul2023 at 17:11:15 

     This program is part of the open-source Quantum ESPRESSO suite
     for quantum simulation of materials; please cite
         "P. Giannozzi et al., J. Phys.:Condens. Matter 21 395502 (2009);
         "P. Giannozzi et al., J. Phys.:Condens. Matter 29 465901 (2017);
         "P. Giannozzi et al., J. Chem. Phys. 152 154105 (2020);
          URL http://www.quantum-espresso.org", 
     in publications or presentations arising from this work. More details at
     http://www.quantum-espresso.org/quote

     Parallel version (MPI & OpenMP), running on       2 processor cores
     Number of MPI processes:                 1
     Threads/MPI process:                     2

     MPI processes distributed on     1 nodes
     89881 MiB available memory on the printing compute node when the environment starts

     Reading input from silicene_scf_ecutwfc-40.in

     Current dimensions of program PWSCF are:
     Max number of different atomic species (ntypx) = 10
     Max number of k-points (npk) =  40000
     Max angular momentum in pseudopotentials (lmaxx) =  4
     file Si.pbe-n-kjpaw_psl.1.0.0.UPF: wavefunction(s)  3S 3P renormalized

     Subspace diagonalization in iterative solution of the eigenvalue problem:
     a serial algorithm will be used


     G-vector sticks info
     --------------------
     sticks:   dense  smooth     PW     G-vecs:    dense   smooth      PW
     Sum         583     583    199                59691    59691   10965

     Using Slab Decomposition



     bravais-lattice index     =           -9
     lattice parameter (alat)  =       7.2962  a.u.
     unit-cell volume          =    1742.4604 (a.u.)^3
     number of atoms/cell      =            2
     number of atomic types    =            1
     number of electrons       =         8.00
     number of Kohn-Sham states=            8
     kinetic-energy cutoff     =      40.0000  Ry
     charge density cutoff     =     160.0000  Ry
     scf convergence threshold =      1.0E-08
     mixing beta               =       0.7000
     number of iterations used =            8  plain     mixing
     Exchange-correlation= SLA  PW   PBX  PBC
                           (   1   4   3   4   0   0   0)

     celldm(1)=   7.296200  celldm(2)=   1.732100  celldm(3)=   5.180000
     celldm(4)=   0.000000  celldm(5)=   0.000000  celldm(6)=   0.000000

     crystal axes: (cart. coord. in units of alat)
               a(1) = (   0.500000  -0.866050   0.000000 )  
               a(2) = (   0.500000   0.866050   0.000000 )  
               a(3) = (   0.000000   0.000000   5.180000 )  

     reciprocal axes: (cart. coord. in units 2 pi/alat)
               b(1) = (  1.000000 -0.577334  0.000000 )  
               b(2) = (  1.000000  0.577334 -0.000000 )  
               b(3) = ( -0.000000  0.000000  0.193050 )  


     PseudoPot. # 1 for Si read from file:
     ../pseudos/Si.pbe-n-kjpaw_psl.1.0.0.UPF
     MD5 check sum: c39c59da582df4a0d9f10159256ea34e
     Pseudo is Projector augmented-wave + core cor, Zval =  4.0
     Generated using &quot;atomic&quot; code by A. Dal Corso  v.6.3
     Shape of augmentation charge: PSQ
     Using radial grid of 1141 points,  6 beta functions with: 
                l(1) =   0
                l(2) =   0
                l(3) =   1
                l(4) =   1
                l(5) =   2
                l(6) =   2
     Q(r) pseudized with 0 coefficients 


     atomic species   valence    mass     pseudopotential
        Si             4.00    28.08550     Si( 1.00)

      2 Sym. Ops. (no inversion) found



   Cartesian axes

     site n.     atom                  positions (alat units)
         1           Si  tau(   1) = (   0.5000000  -0.2886833   2.0476077  )
         2           Si  tau(   2) = (   0.5000000   0.2886833   2.1611423  )

     number of k points=    31  Gaussian smearing, width (Ry)=  0.0100
                       cart. coord. in units 2pi/alat
        k(    1) = (   0.0000000   0.0000000   0.0000000), wk =   0.0200000
        k(    2) = (   0.1000000   0.0577334   0.0000000), wk =   0.0800000
        k(    3) = (   0.2000000   0.1154668   0.0000000), wk =   0.0800000
        k(    4) = (   0.3000000   0.1732002   0.0000000), wk =   0.0800000
        k(    5) = (   0.4000000   0.2309335   0.0000000), wk =   0.0800000
        k(    6) = (  -0.5000000  -0.2886669   0.0000000), wk =   0.0400000
        k(    7) = (   0.2000000   0.0000000   0.0000000), wk =   0.0400000
        k(    8) = (   0.3000000   0.0577334   0.0000000), wk =   0.0800000
        k(    9) = (   0.4000000   0.1154668   0.0000000), wk =   0.0800000
        k(   10) = (   0.5000000   0.1732002   0.0000000), wk =   0.0800000
        k(   11) = (  -0.4000000  -0.3464003   0.0000000), wk =   0.0800000
        k(   12) = (  -0.3000000  -0.2886669   0.0000000), wk =   0.0800000
        k(   13) = (  -0.2000000  -0.2309335   0.0000000), wk =   0.0800000
        k(   14) = (  -0.1000000  -0.1732002   0.0000000), wk =   0.0800000
        k(   15) = (   0.0000000  -0.1154668   0.0000000), wk =   0.0400000
        k(   16) = (   0.4000000   0.0000000   0.0000000), wk =   0.0400000
        k(   17) = (   0.5000000   0.0577334   0.0000000), wk =   0.0800000
        k(   18) = (   0.6000000   0.1154668   0.0000000), wk =   0.0800000
        k(   19) = (  -0.3000000  -0.4041337   0.0000000), wk =   0.0800000
        k(   20) = (  -0.2000000  -0.3464003   0.0000000), wk =   0.0800000
        k(   21) = (  -0.1000000  -0.2886669   0.0000000), wk =   0.0800000
        k(   22) = (   0.0000000  -0.2309335   0.0000000), wk =   0.0400000
        k(   23) = (   0.6000000   0.0000000   0.0000000), wk =   0.0400000
        k(   24) = (   0.7000000   0.0577334   0.0000000), wk =   0.0800000
        k(   25) = (  -0.2000000  -0.4618671   0.0000000), wk =   0.0800000
        k(   26) = (  -0.1000000  -0.4041337   0.0000000), wk =   0.0800000
        k(   27) = (  -0.0000000  -0.3464003   0.0000000), wk =   0.0400000
        k(   28) = (   0.8000000   0.0000000   0.0000000), wk =   0.0400000
        k(   29) = (  -0.1000000  -0.5196005   0.0000000), wk =   0.0800000
        k(   30) = (   0.0000000  -0.4618671   0.0000000), wk =   0.0400000
        k(   31) = (  -1.0000000   0.0000000   0.0000000), wk =   0.0200000

     Dense  grid:    59691 G-vectors     FFT dimensions: (  30,  30, 160)

     Estimated max dynamical RAM per process >     240.12 MB

     Check: negative core charge=   -0.000002

     Initial potential from superposition of free atoms

     starting charge       7.9989, renormalised to       8.0000

     negative rho (up, down):  2.275E-04 0.000E+00
     Starting wfcs are    8 randomized atomic wfcs
     Checking if some PAW data can be deallocated... 

     total cpu time spent up to now is        8.5 secs

     per-process dynamical memory:    72.1 Mb

     Self-consistent Calculation

     iteration #  1     ecut=    40.00 Ry     beta= 0.70
     Davidson diagonalization with overlap
     ethr =  1.00E-02,  avg # of iterations =  4.7

     Threshold (ethr) on eigenvalues was too large:
     Diagonalizing with lowered threshold

     Davidson diagonalization with overlap
     ethr =  7.49E-04,  avg # of iterations =  1.4

     negative rho (up, down):  2.142E-04 0.000E+00

     total cpu time spent up to now is       38.0 secs

     total energy              =     -93.35265759 Ry
     estimated scf accuracy    <       0.06569830 Ry

     iteration #  2     ecut=    40.00 Ry     beta= 0.70
     Davidson diagonalization with overlap
     ethr =  8.21E-04,  avg # of iterations =  2.8

     negative rho (up, down):  2.134E-04 0.000E+00

     total cpu time spent up to now is       50.5 secs

     total energy              =     -93.35927474 Ry
     estimated scf accuracy    <       0.00191238 Ry

     iteration #  3     ecut=    40.00 Ry     beta= 0.70
     Davidson diagonalization with overlap
     c_bands:  1 eigenvalues not converged
     ethr =  2.39E-05,  avg # of iterations =  8.8

     negative rho (up, down):  2.126E-04 0.000E+00

     total cpu time spent up to now is       71.2 secs

     total energy              =     -93.35947094 Ry
     estimated scf accuracy    <       0.00014521 Ry

     iteration #  4     ecut=    40.00 Ry     beta= 0.70
     Davidson diagonalization with overlap
     c_bands:  1 eigenvalues not converged
     c_bands:  1 eigenvalues not converged
     c_bands:  1 eigenvalues not converged
     c_bands:  1 eigenvalues not converged
     ethr =  1.82E-06,  avg # of iterations =  9.2

     negative rho (up, down):  2.123E-04 0.000E+00

     total cpu time spent up to now is       91.8 secs

     total energy              =     -93.35945949 Ry
     estimated scf accuracy    <       0.00028389 Ry

     iteration #  5     ecut=    40.00 Ry     beta= 0.70
     Davidson diagonalization with overlap
     c_bands:  1 eigenvalues not converged
     ethr =  1.82E-06,  avg # of iterations =  2.8

     negative rho (up, down):  2.117E-04 0.000E+00

     total cpu time spent up to now is      103.9 secs

     total energy              =     -93.35950384 Ry
     estimated scf accuracy    <       0.00000106 Ry

     iteration #  6     ecut=    40.00 Ry     beta= 0.70
     Davidson diagonalization with overlap
     ethr =  1.32E-08,  avg # of iterations =  3.2

     negative rho (up, down):  2.115E-04 0.000E+00

     total cpu time spent up to now is      119.3 secs

     total energy              =     -93.35950443 Ry
     estimated scf accuracy    <       0.00000014 Ry

     iteration #  7     ecut=    40.00 Ry     beta= 0.70
     Davidson diagonalization with overlap
     ethr =  1.76E-09,  avg # of iterations =  1.6

     negative rho (up, down):  2.114E-04 0.000E+00

     total cpu time spent up to now is      130.5 secs

     End of self-consistent calculation

          k = 0.0000 0.0000 0.0000 (  7523 PWs)   bands (ev):

   -14.0108  -6.0524  -4.1658  -4.1657  -0.9857  -0.2865   0.0834   0.0837

          k = 0.1000 0.0577 0.0000 (  7479 PWs)   bands (ev):

   -13.8939  -5.9766  -4.9780  -4.3670  -0.5617  -0.2058   0.3049   0.5107

          k = 0.2000 0.1155 0.0000 (  7451 PWs)   bands (ev):

   -13.5470  -6.6362  -5.4971  -4.7886  -0.9488  -0.0761   1.5477   1.5977

          k = 0.3000 0.1732 0.0000 (  7445 PWs)   bands (ev):

   -12.9860  -8.1093  -5.1901  -5.0024  -1.4525  -0.5314   1.4775   3.0019

          k = 0.4000 0.2309 0.0000 (  7434 PWs)   bands (ev):

   -12.2708  -9.4175  -5.4583  -4.3380  -1.8528  -1.4757   2.0857   3.3691

          k =-0.5000-0.2887 0.0000 (  7448 PWs)   bands (ev):

   -11.7786 -10.1120  -5.5513  -3.8972  -2.2412  -1.7983   2.7094   3.7730

          k = 0.2000 0.0000 0.0000 (  7471 PWs)   bands (ev):

   -13.6619  -6.2282  -5.5372  -4.8026  -0.1419  -0.0359   0.0724   1.6957

          k = 0.3000 0.0577 0.0000 (  7457 PWs)   bands (ev):

   -13.2062  -7.4897  -5.3885  -5.1909  -0.5760  -0.1690   1.2476   1.5540

          k = 0.4000 0.1155 0.0000 (  7439 PWs)   bands (ev):

   -12.5552  -8.8312  -5.8171  -4.5860  -1.2398  -0.7470   1.8196   2.6948

          k = 0.5000 0.1732 0.0000 (  7429 PWs)   bands (ev):

   -11.8463  -9.9113  -6.0392  -3.9267  -2.0803  -1.0334   2.3794   2.9950

          k =-0.4000-0.3464 0.0000 (  7429 PWs)   bands (ev):

   -11.8463  -9.9113  -6.0392  -3.9268  -2.0803  -1.0334   2.3794   2.9951

          k =-0.3000-0.2887 0.0000 (  7437 PWs)   bands (ev):

   -12.5552  -8.8312  -5.8172  -4.5860  -1.2398  -0.7469   1.8195   2.6950

          k =-0.2000-0.2309 0.0000 (  7457 PWs)   bands (ev):

   -13.2062  -7.4896  -5.3885  -5.1909  -0.5759  -0.1689   1.2480   1.5540

          k =-0.1000-0.1732 0.0000 (  7471 PWs)   bands (ev):

   -13.6619  -6.2282  -5.5372  -4.8026  -0.1419  -0.0355   0.0724   1.6947

          k = 0.0000-0.1155 0.0000 (  7479 PWs)   bands (ev):

   -13.8939  -5.9766  -4.9781  -4.3669  -0.5614  -0.2059   0.3045   0.5109

          k = 0.4000 0.0000 0.0000 (  7453 PWs)   bands (ev):

   -12.6538  -8.4975  -6.1935  -4.6732  -0.9293   0.7799   1.0434   1.8174

          k = 0.5000 0.0577 0.0000 (  7434 PWs)   bands (ev):

   -11.9386  -9.5498  -6.7240  -3.9952  -1.7853   0.6274   1.8264   2.5334

          k = 0.6000 0.1155 0.0000 (  7432 PWs)   bands (ev):

   -11.4055 -10.2103  -6.8979  -3.4991  -2.3628   0.5344   1.6345   3.3253

          k =-0.3000-0.4041 0.0000 (  7436 PWs)   bands (ev):

   -11.9386  -9.5497  -6.7240  -3.9953  -1.7852   0.6275   1.8264   2.5333

          k =-0.2000-0.3464 0.0000 (  7453 PWs)   bands (ev):

   -12.6539  -8.4974  -6.1935  -4.6733  -0.9293   0.7801   1.0438   1.8177

          k =-0.1000-0.2887 0.0000 (  7457 PWs)   bands (ev):

   -13.2062  -7.4897  -5.3884  -5.1909  -0.5757  -0.1689   1.2478   1.5540

          k = 0.0000-0.2309 0.0000 (  7451 PWs)   bands (ev):

   -13.5471  -6.6363  -5.4971  -4.7884  -0.9486  -0.0761   1.5477   1.5978

          k = 0.6000 0.0000 0.0000 (  7415 PWs)   bands (ev):

   -11.2019 -10.2976  -7.2864  -3.3008  -2.4631   1.2480   2.2788   2.6853

          k = 0.7000 0.0577 0.0000 (  7415 PWs)   bands (ev):

   -11.2020 -10.2975  -7.2864  -3.3009  -2.4630   1.2480   2.2790   2.6857

          k =-0.2000-0.4619 0.0000 (  7436 PWs)   bands (ev):

   -11.9387  -9.5497  -6.7239  -3.9953  -1.7852   0.6279   1.8264   2.5332

          k =-0.1000-0.4041 0.0000 (  7435 PWs)   bands (ev):

   -12.5553  -8.8312  -5.8170  -4.5861  -1.2397  -0.7467   1.8195   2.6948

          k =-0.0000-0.3464 0.0000 (  7441 PWs)   bands (ev):

   -12.9861  -8.1094  -5.1899  -5.0024  -1.4523  -0.5315   1.4775   3.0023

          k = 0.8000 0.0000 0.0000 (  7432 PWs)   bands (ev):

   -11.4057 -10.2101  -6.8978  -3.4992  -2.3627   0.5349   1.6346   3.3250

          k =-0.1000-0.5196 0.0000 (  7429 PWs)   bands (ev):

   -11.8464  -9.9112  -6.0390  -3.9269  -2.0803  -1.0330   2.3794   2.9951

          k = 0.0000-0.4619 0.0000 (  7434 PWs)   bands (ev):

   -12.2710  -9.4175  -5.4581  -4.3381  -1.8526  -1.4756   2.0856   3.3695

          k =-1.0000 0.0000 0.0000 (  7448 PWs)   bands (ev):

   -11.7788 -10.1120  -5.5510  -3.8973  -2.2411  -1.7980   2.7093   3.7735

     the Fermi energy is    -2.8820 ev

!    total energy              =     -93.35950445 Ry

     total all-electron energy =     -1160.051234 Ry
     estimated scf accuracy    <          9.9E-09 Ry
     smearing contrib. (-TS)   =      -0.00000005 Ry
     internal energy E=F+TS    =     -93.35950439 Ry

     The total energy is F=E-TS. E is the sum of the following terms:
     one-electron contribution =     -80.75479823 Ry
     hartree contribution      =      41.59872015 Ry
     xc contribution           =     -12.15071408 Ry
     ewald contribution        =      29.13615741 Ry
     one-center paw contrib.   =     -71.18886965 Ry

     convergence has been achieved in   7 iterations

     Writing all to output data dir ./silicene.save/

     init_run     :     11.10s CPU      8.24s WALL (       1 calls)
     electrons    :    184.70s CPU    121.98s WALL (       1 calls)

     Called by init_run:
     wfcinit      :      6.81s CPU      4.44s WALL (       1 calls)
     potinit      :      0.87s CPU      0.63s WALL (       1 calls)
     hinit0       :      2.25s CPU      2.25s WALL (       1 calls)

     Called by electrons:
     c_bands      :    151.13s CPU    100.27s WALL (       8 calls)
     sum_band     :     25.78s CPU     16.83s WALL (       8 calls)
     v_of_rho     :      0.87s CPU      0.46s WALL (       8 calls)
     newd         :      3.89s CPU      2.60s WALL (       8 calls)
     PAW_pot      :      4.03s CPU      2.48s WALL (       8 calls)
     mix_rho      :      0.12s CPU      0.06s WALL (       8 calls)

     Called by c_bands:
     init_us_2    :      2.70s CPU      1.82s WALL (     527 calls)
     init_us_2:cp :      2.69s CPU      1.82s WALL (     527 calls)
     cegterg      :    145.28s CPU     96.51s WALL (     248 calls)

     Called by *egterg:
     cdiaghg      :      0.39s CPU      0.23s WALL (    1285 calls)
     h_psi        :    117.69s CPU     76.69s WALL (    1347 calls)
     s_psi        :      4.23s CPU      2.90s WALL (    1347 calls)
     g_psi        :      3.17s CPU      2.42s WALL (    1068 calls)

     Called by h_psi:
     h_psi:calbec :      9.32s CPU      5.77s WALL (    1347 calls)
     vloc_psi     :    104.06s CPU     68.16s WALL (    1347 calls)
     add_vuspsi   :      2.21s CPU      1.24s WALL (    1347 calls)

     General routines
     calbec       :     11.37s CPU      7.03s WALL (    1595 calls)
     fft          :      1.59s CPU      1.46s WALL (      89 calls)
     ffts         :      0.02s CPU      0.01s WALL (       8 calls)
     fftw         :    110.38s CPU     71.96s WALL (   13914 calls)

     Parallel routines

     PWSCF        :   3m16.35s CPU   2m10.77s WALL


   This run was terminated on:  17:13:26  12Jul2023            

=------------------------------------------------------------------------------=
   JOB DONE.
=------------------------------------------------------------------------------=
