### Running on host: qmobile

     Program PWSCF v.7.0 starts on 12Jul2023 at 17:15:54 

     This program is part of the open-source Quantum ESPRESSO suite
     for quantum simulation of materials; please cite
         "P. Giannozzi et al., J. Phys.:Condens. Matter 21 395502 (2009);
         "P. Giannozzi et al., J. Phys.:Condens. Matter 29 465901 (2017);
         "P. Giannozzi et al., J. Chem. Phys. 152 154105 (2020);
          URL http://www.quantum-espresso.org", 
     in publications or presentations arising from this work. More details at
     http://www.quantum-espresso.org/quote

     Parallel version (MPI & OpenMP), running on       2 processor cores
     Number of MPI processes:                 1
     Threads/MPI process:                     2

     MPI processes distributed on     1 nodes
     89842 MiB available memory on the printing compute node when the environment starts

     Reading input from silicene_scf_ecutwfc-60.in

     Current dimensions of program PWSCF are:
     Max number of different atomic species (ntypx) = 10
     Max number of k-points (npk) =  40000
     Max angular momentum in pseudopotentials (lmaxx) =  4
     file Si.pbe-n-kjpaw_psl.1.0.0.UPF: wavefunction(s)  3S 3P renormalized
     Message from routine set_cutoff:
     ecutrho < 4*ecutwfc, are you sure?

     Subspace diagonalization in iterative solution of the eigenvalue problem:
     a serial algorithm will be used


     G-vector sticks info
     --------------------
     sticks:   dense  smooth     PW     G-vecs:    dense   smooth      PW
     Sum         583     583    265                59691    59691   18619

     Using Slab Decomposition



     bravais-lattice index     =           -9
     lattice parameter (alat)  =       7.2962  a.u.
     unit-cell volume          =    1742.4604 (a.u.)^3
     number of atoms/cell      =            2
     number of atomic types    =            1
     number of electrons       =         8.00
     number of Kohn-Sham states=            8
     kinetic-energy cutoff     =      60.0000  Ry
     charge density cutoff     =     160.0000  Ry
     scf convergence threshold =      1.0E-08
     mixing beta               =       0.7000
     number of iterations used =            8  plain     mixing
     Exchange-correlation= SLA  PW   PBX  PBC
                           (   1   4   3   4   0   0   0)

     celldm(1)=   7.296200  celldm(2)=   1.732100  celldm(3)=   5.180000
     celldm(4)=   0.000000  celldm(5)=   0.000000  celldm(6)=   0.000000

     crystal axes: (cart. coord. in units of alat)
               a(1) = (   0.500000  -0.866050   0.000000 )  
               a(2) = (   0.500000   0.866050   0.000000 )  
               a(3) = (   0.000000   0.000000   5.180000 )  

     reciprocal axes: (cart. coord. in units 2 pi/alat)
               b(1) = (  1.000000 -0.577334  0.000000 )  
               b(2) = (  1.000000  0.577334 -0.000000 )  
               b(3) = ( -0.000000  0.000000  0.193050 )  


     PseudoPot. # 1 for Si read from file:
     ../pseudos/Si.pbe-n-kjpaw_psl.1.0.0.UPF
     MD5 check sum: c39c59da582df4a0d9f10159256ea34e
     Pseudo is Projector augmented-wave + core cor, Zval =  4.0
     Generated using &quot;atomic&quot; code by A. Dal Corso  v.6.3
     Shape of augmentation charge: PSQ
     Using radial grid of 1141 points,  6 beta functions with: 
                l(1) =   0
                l(2) =   0
                l(3) =   1
                l(4) =   1
                l(5) =   2
                l(6) =   2
     Q(r) pseudized with 0 coefficients 


     atomic species   valence    mass     pseudopotential
        Si             4.00    28.08550     Si( 1.00)

      2 Sym. Ops. (no inversion) found



   Cartesian axes

     site n.     atom                  positions (alat units)
         1           Si  tau(   1) = (   0.5000000  -0.2886833   2.0476077  )
         2           Si  tau(   2) = (   0.5000000   0.2886833   2.1611423  )

     number of k points=    31  Gaussian smearing, width (Ry)=  0.0100
                       cart. coord. in units 2pi/alat
        k(    1) = (   0.0000000   0.0000000   0.0000000), wk =   0.0200000
        k(    2) = (   0.1000000   0.0577334   0.0000000), wk =   0.0800000
        k(    3) = (   0.2000000   0.1154668   0.0000000), wk =   0.0800000
        k(    4) = (   0.3000000   0.1732002   0.0000000), wk =   0.0800000
        k(    5) = (   0.4000000   0.2309335   0.0000000), wk =   0.0800000
        k(    6) = (  -0.5000000  -0.2886669   0.0000000), wk =   0.0400000
        k(    7) = (   0.2000000   0.0000000   0.0000000), wk =   0.0400000
        k(    8) = (   0.3000000   0.0577334   0.0000000), wk =   0.0800000
        k(    9) = (   0.4000000   0.1154668   0.0000000), wk =   0.0800000
        k(   10) = (   0.5000000   0.1732002   0.0000000), wk =   0.0800000
        k(   11) = (  -0.4000000  -0.3464003   0.0000000), wk =   0.0800000
        k(   12) = (  -0.3000000  -0.2886669   0.0000000), wk =   0.0800000
        k(   13) = (  -0.2000000  -0.2309335   0.0000000), wk =   0.0800000
        k(   14) = (  -0.1000000  -0.1732002   0.0000000), wk =   0.0800000
        k(   15) = (   0.0000000  -0.1154668   0.0000000), wk =   0.0400000
        k(   16) = (   0.4000000   0.0000000   0.0000000), wk =   0.0400000
        k(   17) = (   0.5000000   0.0577334   0.0000000), wk =   0.0800000
        k(   18) = (   0.6000000   0.1154668   0.0000000), wk =   0.0800000
        k(   19) = (  -0.3000000  -0.4041337   0.0000000), wk =   0.0800000
        k(   20) = (  -0.2000000  -0.3464003   0.0000000), wk =   0.0800000
        k(   21) = (  -0.1000000  -0.2886669   0.0000000), wk =   0.0800000
        k(   22) = (   0.0000000  -0.2309335   0.0000000), wk =   0.0400000
        k(   23) = (   0.6000000   0.0000000   0.0000000), wk =   0.0400000
        k(   24) = (   0.7000000   0.0577334   0.0000000), wk =   0.0800000
        k(   25) = (  -0.2000000  -0.4618671   0.0000000), wk =   0.0800000
        k(   26) = (  -0.1000000  -0.4041337   0.0000000), wk =   0.0800000
        k(   27) = (  -0.0000000  -0.3464003   0.0000000), wk =   0.0400000
        k(   28) = (   0.8000000   0.0000000   0.0000000), wk =   0.0400000
        k(   29) = (  -0.1000000  -0.5196005   0.0000000), wk =   0.0800000
        k(   30) = (   0.0000000  -0.4618671   0.0000000), wk =   0.0400000
        k(   31) = (  -1.0000000   0.0000000   0.0000000), wk =   0.0200000

     Dense  grid:    59691 G-vectors     FFT dimensions: (  30,  30, 160)

     Estimated max dynamical RAM per process >     267.89 MB

     Check: negative core charge=   -0.000002

     Initial potential from superposition of free atoms

     starting charge       7.9989, renormalised to       8.0000

     negative rho (up, down):  2.275E-04 0.000E+00
     Starting wfcs are    8 randomized atomic wfcs
     Checking if some PAW data can be deallocated... 

     total cpu time spent up to now is        8.9 secs

     per-process dynamical memory:   102.2 Mb

     Self-consistent Calculation

     iteration #  1     ecut=    60.00 Ry     beta= 0.70
     Davidson diagonalization with overlap
     ethr =  1.00E-02,  avg # of iterations =  4.7

     Threshold (ethr) on eigenvalues was too large:
     Diagonalizing with lowered threshold

     Davidson diagonalization with overlap
     ethr =  7.46E-04,  avg # of iterations =  1.4

     negative rho (up, down):  2.146E-04 0.000E+00

     total cpu time spent up to now is       46.6 secs

     total energy              =     -93.35276740 Ry
     estimated scf accuracy    <       0.06563892 Ry

     iteration #  2     ecut=    60.00 Ry     beta= 0.70
     Davidson diagonalization with overlap
     ethr =  8.20E-04,  avg # of iterations =  2.8

     negative rho (up, down):  2.136E-04 0.000E+00

     total cpu time spent up to now is       63.7 secs

     total energy              =     -93.35938154 Ry
     estimated scf accuracy    <       0.00191039 Ry

     iteration #  3     ecut=    60.00 Ry     beta= 0.70
     Davidson diagonalization with overlap
     ethr =  2.39E-05,  avg # of iterations =  9.1

     negative rho (up, down):  2.125E-04 0.000E+00

     total cpu time spent up to now is       88.9 secs

     total energy              =     -93.35958671 Ry
     estimated scf accuracy    <       0.00013019 Ry

     iteration #  4     ecut=    60.00 Ry     beta= 0.70
     Davidson diagonalization with overlap
     c_bands:  1 eigenvalues not converged
     ethr =  1.63E-06,  avg # of iterations =  7.7

     negative rho (up, down):  2.122E-04 0.000E+00

     total cpu time spent up to now is      114.4 secs

     total energy              =     -93.35958460 Ry
     estimated scf accuracy    <       0.00015615 Ry

     iteration #  5     ecut=    60.00 Ry     beta= 0.70
     Davidson diagonalization with overlap
     ethr =  1.63E-06,  avg # of iterations =  2.1

     negative rho (up, down):  2.116E-04 0.000E+00

     total cpu time spent up to now is      127.3 secs

     total energy              =     -93.35961003 Ry
     estimated scf accuracy    <       0.00000123 Ry

     iteration #  6     ecut=    60.00 Ry     beta= 0.70
     Davidson diagonalization with overlap
     ethr =  1.54E-08,  avg # of iterations =  2.6

     negative rho (up, down):  2.113E-04 0.000E+00

     total cpu time spent up to now is      142.6 secs

     total energy              =     -93.35961063 Ry
     estimated scf accuracy    <       0.00000010 Ry

     iteration #  7     ecut=    60.00 Ry     beta= 0.70
     Davidson diagonalization with overlap
     ethr =  1.22E-09,  avg # of iterations =  2.5

     negative rho (up, down):  2.112E-04 0.000E+00

     total cpu time spent up to now is      156.7 secs

     total energy              =     -93.35961065 Ry
     estimated scf accuracy    <       0.00000001 Ry

     iteration #  8     ecut=    60.00 Ry     beta= 0.70
     Davidson diagonalization with overlap
     ethr =  1.57E-10,  avg # of iterations =  2.2

     negative rho (up, down):  2.112E-04 0.000E+00

     total cpu time spent up to now is      172.0 secs

     End of self-consistent calculation

          k = 0.0000 0.0000 0.0000 ( 13563 PWs)   bands (ev):

   -14.0113  -6.0527  -4.1664  -4.1663  -0.9862  -0.2867   0.0827   0.0830

          k = 0.1000 0.0577 0.0000 ( 13615 PWs)   bands (ev):

   -13.8944  -5.9769  -4.9785  -4.3676  -0.5622  -0.2060   0.3043   0.5100

          k = 0.2000 0.1155 0.0000 ( 13639 PWs)   bands (ev):

   -13.5475  -6.6367  -5.4975  -4.7891  -0.9494  -0.0763   1.5471   1.5970

          k = 0.3000 0.1732 0.0000 ( 13668 PWs)   bands (ev):

   -12.9865  -8.1098  -5.1906  -5.0027  -1.4530  -0.5318   1.4774   3.0016

          k = 0.4000 0.2309 0.0000 ( 13626 PWs)   bands (ev):

   -12.2714  -9.4180  -5.4588  -4.3384  -1.8532  -1.4761   2.0855   3.3694

          k =-0.5000-0.2887 0.0000 ( 13672 PWs)   bands (ev):

   -11.7791 -10.1125  -5.5518  -3.8976  -2.2415  -1.7988   2.7092   3.7704

          k = 0.2000 0.0000 0.0000 ( 13637 PWs)   bands (ev):

   -13.6624  -6.2287  -5.5376  -4.8032  -0.1422  -0.0365   0.0720   1.6958

          k = 0.3000 0.0577 0.0000 ( 13652 PWs)   bands (ev):

   -13.2067  -7.4902  -5.3890  -5.1912  -0.5765  -0.1694   1.2471   1.5539

          k = 0.4000 0.1155 0.0000 ( 13684 PWs)   bands (ev):

   -12.5557  -8.8317  -5.8177  -4.5863  -1.2402  -0.7475   1.8194   2.6940

          k = 0.5000 0.1732 0.0000 ( 13698 PWs)   bands (ev):

   -11.8468  -9.9118  -6.0397  -3.9271  -2.0807  -1.0339   2.3792   2.9948

          k =-0.4000-0.3464 0.0000 ( 13698 PWs)   bands (ev):

   -11.8468  -9.9118  -6.0398  -3.9271  -2.0807  -1.0339   2.3791   2.9948

          k =-0.3000-0.2887 0.0000 ( 13686 PWs)   bands (ev):

   -12.5557  -8.8317  -5.8177  -4.5864  -1.2402  -0.7474   1.8194   2.6943

          k =-0.2000-0.2309 0.0000 ( 13652 PWs)   bands (ev):

   -13.2067  -7.4902  -5.3891  -5.1912  -0.5764  -0.1693   1.2475   1.5538

          k =-0.1000-0.1732 0.0000 ( 13637 PWs)   bands (ev):

   -13.6624  -6.2287  -5.5376  -4.8032  -0.1422  -0.0360   0.0720   1.6959

          k = 0.0000-0.1155 0.0000 ( 13615 PWs)   bands (ev):

   -13.8944  -5.9769  -4.9786  -4.3675  -0.5619  -0.2060   0.3039   0.5102

          k = 0.4000 0.0000 0.0000 ( 13673 PWs)   bands (ev):

   -12.6543  -8.4980  -6.1940  -4.6736  -0.9297   0.7794   1.0428   1.8172

          k = 0.5000 0.0577 0.0000 ( 13717 PWs)   bands (ev):

   -11.9391  -9.5503  -6.7245  -3.9956  -1.7857   0.6269   1.8261   2.5335

          k = 0.6000 0.1155 0.0000 ( 13735 PWs)   bands (ev):

   -11.4060 -10.2108  -6.8984  -3.4994  -2.3631   0.5339   1.6342   3.3251

          k =-0.3000-0.4041 0.0000 ( 13717 PWs)   bands (ev):

   -11.9392  -9.5502  -6.7245  -3.9957  -1.7856   0.6270   1.8261   2.5338

          k =-0.2000-0.3464 0.0000 ( 13673 PWs)   bands (ev):

   -12.6544  -8.4979  -6.1940  -4.6736  -0.9297   0.7796   1.0432   1.8173

          k =-0.1000-0.2887 0.0000 ( 13652 PWs)   bands (ev):

   -13.2068  -7.4902  -5.3890  -5.1912  -0.5762  -0.1693   1.2473   1.5536

          k = 0.0000-0.2309 0.0000 ( 13641 PWs)   bands (ev):

   -13.5476  -6.6368  -5.4975  -4.7890  -0.9491  -0.0763   1.5470   1.5971

          k = 0.6000 0.0000 0.0000 ( 13719 PWs)   bands (ev):

   -11.2024 -10.2982  -7.2869  -3.3012  -2.4635   1.2477   2.2782   2.6847

          k = 0.7000 0.0577 0.0000 ( 13717 PWs)   bands (ev):

   -11.2026 -10.2980  -7.2869  -3.3013  -2.4635   1.2477   2.2784   2.6851

          k =-0.2000-0.4619 0.0000 ( 13715 PWs)   bands (ev):

   -11.9392  -9.5502  -6.7244  -3.9957  -1.7856   0.6273   1.8261   2.5328

          k =-0.1000-0.4041 0.0000 ( 13684 PWs)   bands (ev):

   -12.5558  -8.8317  -5.8175  -4.5864  -1.2401  -0.7472   1.8193   2.6942

          k =-0.0000-0.3464 0.0000 ( 13668 PWs)   bands (ev):

   -12.9866  -8.1099  -5.1904  -5.0027  -1.4528  -0.5318   1.4773   3.0017

          k = 0.8000 0.0000 0.0000 ( 13735 PWs)   bands (ev):

   -11.4062 -10.2107  -6.8983  -3.4996  -2.3631   0.5343   1.6343   3.3248

          k =-0.1000-0.5196 0.0000 ( 13698 PWs)   bands (ev):

   -11.8470  -9.9117  -6.0396  -3.9272  -2.0807  -1.0335   2.3792   2.9948

          k = 0.0000-0.4619 0.0000 ( 13626 PWs)   bands (ev):

   -12.2715  -9.4180  -5.4586  -4.3385  -1.8530  -1.4761   2.0855   3.7614

          k =-1.0000 0.0000 0.0000 ( 13672 PWs)   bands (ev):

   -11.7793 -10.1125  -5.5516  -3.8977  -2.2415  -1.7984   2.7091   3.7730

     the Fermi energy is    -2.8824 ev

!    total energy              =     -93.35961065 Ry

     total all-electron energy =     -1160.051341 Ry
     estimated scf accuracy    <          3.5E-10 Ry
     smearing contrib. (-TS)   =      -0.00000005 Ry
     internal energy E=F+TS    =     -93.35961060 Ry

     The total energy is F=E-TS. E is the sum of the following terms:
     one-electron contribution =     -80.75500465 Ry
     hartree contribution      =      41.59887794 Ry
     xc contribution           =     -12.15078244 Ry
     ewald contribution        =      29.13615741 Ry
     one-center paw contrib.   =     -71.18885886 Ry

     convergence has been achieved in   8 iterations

     Writing all to output data dir ./silicene.save/

     init_run     :     11.93s CPU      8.57s WALL (       1 calls)
     electrons    :    246.63s CPU    163.10s WALL (       1 calls)

     Called by init_run:
     wfcinit      :      7.84s CPU      4.85s WALL (       1 calls)
     potinit      :      0.91s CPU      0.51s WALL (       1 calls)
     hinit0       :      2.21s CPU      2.22s WALL (       1 calls)

     Called by electrons:
     c_bands      :    202.48s CPU    135.08s WALL (       9 calls)
     sum_band     :     35.31s CPU     22.84s WALL (       9 calls)
     v_of_rho     :      1.20s CPU      0.67s WALL (       9 calls)
     newd         :      4.15s CPU      2.75s WALL (       9 calls)
     PAW_pot      :      4.47s CPU      2.34s WALL (       9 calls)
     mix_rho      :      0.16s CPU      0.08s WALL (       9 calls)

     Called by c_bands:
     init_us_2    :      4.33s CPU      2.94s WALL (     589 calls)
     init_us_2:cp :      4.33s CPU      2.94s WALL (     589 calls)
     cegterg      :    190.85s CPU    127.61s WALL (     279 calls)

     Called by *egterg:
     cdiaghg      :      0.42s CPU      0.26s WALL (    1340 calls)
     h_psi        :    150.90s CPU     98.76s WALL (    1402 calls)
     s_psi        :      6.51s CPU      4.36s WALL (    1402 calls)
     g_psi        :      4.22s CPU      3.06s WALL (    1092 calls)

     Called by h_psi:
     h_psi:calbec :     13.58s CPU      8.58s WALL (    1402 calls)
     vloc_psi     :    130.51s CPU     85.62s WALL (    1402 calls)
     add_vuspsi   :      4.12s CPU      2.53s WALL (    1402 calls)

     General routines
     calbec       :     16.83s CPU     10.50s WALL (    1681 calls)
     fft          :      1.67s CPU      1.40s WALL (     100 calls)
     ffts         :      0.03s CPU      0.02s WALL (       9 calls)
     fftw         :    139.56s CPU     90.97s WALL (   15218 calls)

     Parallel routines

     PWSCF        :   4m19.31s CPU   2m52.57s WALL


   This run was terminated on:  17:18:47  12Jul2023            

=------------------------------------------------------------------------------=
   JOB DONE.
=------------------------------------------------------------------------------=
