### Running on host: qmobile

     Program PWSCF v.7.0 starts on 12Jul2023 at 17:18:47 

     This program is part of the open-source Quantum ESPRESSO suite
     for quantum simulation of materials; please cite
         "P. Giannozzi et al., J. Phys.:Condens. Matter 21 395502 (2009);
         "P. Giannozzi et al., J. Phys.:Condens. Matter 29 465901 (2017);
         "P. Giannozzi et al., J. Chem. Phys. 152 154105 (2020);
          URL http://www.quantum-espresso.org", 
     in publications or presentations arising from this work. More details at
     http://www.quantum-espresso.org/quote

     Parallel version (MPI & OpenMP), running on       2 processor cores
     Number of MPI processes:                 1
     Threads/MPI process:                     2

     MPI processes distributed on     1 nodes
     89873 MiB available memory on the printing compute node when the environment starts

     Reading input from silicene_scf_ecutwfc-70.in

     Current dimensions of program PWSCF are:
     Max number of different atomic species (ntypx) = 10
     Max number of k-points (npk) =  40000
     Max angular momentum in pseudopotentials (lmaxx) =  4
     file Si.pbe-n-kjpaw_psl.1.0.0.UPF: wavefunction(s)  3S 3P renormalized
     Message from routine set_cutoff:
     ecutrho < 4*ecutwfc, are you sure?

     Subspace diagonalization in iterative solution of the eigenvalue problem:
     a serial algorithm will be used


     G-vector sticks info
     --------------------
     sticks:   dense  smooth     PW     G-vecs:    dense   smooth      PW
     Sum         583     583    313                59691    59691   23211

     Using Slab Decomposition



     bravais-lattice index     =           -9
     lattice parameter (alat)  =       7.2962  a.u.
     unit-cell volume          =    1742.4604 (a.u.)^3
     number of atoms/cell      =            2
     number of atomic types    =            1
     number of electrons       =         8.00
     number of Kohn-Sham states=            8
     kinetic-energy cutoff     =      70.0000  Ry
     charge density cutoff     =     160.0000  Ry
     scf convergence threshold =      1.0E-08
     mixing beta               =       0.7000
     number of iterations used =            8  plain     mixing
     Exchange-correlation= SLA  PW   PBX  PBC
                           (   1   4   3   4   0   0   0)

     celldm(1)=   7.296200  celldm(2)=   1.732100  celldm(3)=   5.180000
     celldm(4)=   0.000000  celldm(5)=   0.000000  celldm(6)=   0.000000

     crystal axes: (cart. coord. in units of alat)
               a(1) = (   0.500000  -0.866050   0.000000 )  
               a(2) = (   0.500000   0.866050   0.000000 )  
               a(3) = (   0.000000   0.000000   5.180000 )  

     reciprocal axes: (cart. coord. in units 2 pi/alat)
               b(1) = (  1.000000 -0.577334  0.000000 )  
               b(2) = (  1.000000  0.577334 -0.000000 )  
               b(3) = ( -0.000000  0.000000  0.193050 )  


     PseudoPot. # 1 for Si read from file:
     ../pseudos/Si.pbe-n-kjpaw_psl.1.0.0.UPF
     MD5 check sum: c39c59da582df4a0d9f10159256ea34e
     Pseudo is Projector augmented-wave + core cor, Zval =  4.0
     Generated using &quot;atomic&quot; code by A. Dal Corso  v.6.3
     Shape of augmentation charge: PSQ
     Using radial grid of 1141 points,  6 beta functions with: 
                l(1) =   0
                l(2) =   0
                l(3) =   1
                l(4) =   1
                l(5) =   2
                l(6) =   2
     Q(r) pseudized with 0 coefficients 


     atomic species   valence    mass     pseudopotential
        Si             4.00    28.08550     Si( 1.00)

      2 Sym. Ops. (no inversion) found



   Cartesian axes

     site n.     atom                  positions (alat units)
         1           Si  tau(   1) = (   0.5000000  -0.2886833   2.0476077  )
         2           Si  tau(   2) = (   0.5000000   0.2886833   2.1611423  )

     number of k points=    31  Gaussian smearing, width (Ry)=  0.0100
                       cart. coord. in units 2pi/alat
        k(    1) = (   0.0000000   0.0000000   0.0000000), wk =   0.0200000
        k(    2) = (   0.1000000   0.0577334   0.0000000), wk =   0.0800000
        k(    3) = (   0.2000000   0.1154668   0.0000000), wk =   0.0800000
        k(    4) = (   0.3000000   0.1732002   0.0000000), wk =   0.0800000
        k(    5) = (   0.4000000   0.2309335   0.0000000), wk =   0.0800000
        k(    6) = (  -0.5000000  -0.2886669   0.0000000), wk =   0.0400000
        k(    7) = (   0.2000000   0.0000000   0.0000000), wk =   0.0400000
        k(    8) = (   0.3000000   0.0577334   0.0000000), wk =   0.0800000
        k(    9) = (   0.4000000   0.1154668   0.0000000), wk =   0.0800000
        k(   10) = (   0.5000000   0.1732002   0.0000000), wk =   0.0800000
        k(   11) = (  -0.4000000  -0.3464003   0.0000000), wk =   0.0800000
        k(   12) = (  -0.3000000  -0.2886669   0.0000000), wk =   0.0800000
        k(   13) = (  -0.2000000  -0.2309335   0.0000000), wk =   0.0800000
        k(   14) = (  -0.1000000  -0.1732002   0.0000000), wk =   0.0800000
        k(   15) = (   0.0000000  -0.1154668   0.0000000), wk =   0.0400000
        k(   16) = (   0.4000000   0.0000000   0.0000000), wk =   0.0400000
        k(   17) = (   0.5000000   0.0577334   0.0000000), wk =   0.0800000
        k(   18) = (   0.6000000   0.1154668   0.0000000), wk =   0.0800000
        k(   19) = (  -0.3000000  -0.4041337   0.0000000), wk =   0.0800000
        k(   20) = (  -0.2000000  -0.3464003   0.0000000), wk =   0.0800000
        k(   21) = (  -0.1000000  -0.2886669   0.0000000), wk =   0.0800000
        k(   22) = (   0.0000000  -0.2309335   0.0000000), wk =   0.0400000
        k(   23) = (   0.6000000   0.0000000   0.0000000), wk =   0.0400000
        k(   24) = (   0.7000000   0.0577334   0.0000000), wk =   0.0800000
        k(   25) = (  -0.2000000  -0.4618671   0.0000000), wk =   0.0800000
        k(   26) = (  -0.1000000  -0.4041337   0.0000000), wk =   0.0800000
        k(   27) = (  -0.0000000  -0.3464003   0.0000000), wk =   0.0400000
        k(   28) = (   0.8000000   0.0000000   0.0000000), wk =   0.0400000
        k(   29) = (  -0.1000000  -0.5196005   0.0000000), wk =   0.0800000
        k(   30) = (   0.0000000  -0.4618671   0.0000000), wk =   0.0400000
        k(   31) = (  -1.0000000   0.0000000   0.0000000), wk =   0.0200000

     Dense  grid:    59691 G-vectors     FFT dimensions: (  30,  30, 160)

     Estimated max dynamical RAM per process >     283.74 MB

     Check: negative core charge=   -0.000002

     Initial potential from superposition of free atoms

     starting charge       7.9989, renormalised to       8.0000

     negative rho (up, down):  2.275E-04 0.000E+00
     Starting wfcs are    8 randomized atomic wfcs
     Checking if some PAW data can be deallocated... 

     total cpu time spent up to now is        9.4 secs

     per-process dynamical memory:   119.8 Mb

     Self-consistent Calculation

     iteration #  1     ecut=    70.00 Ry     beta= 0.70
     Davidson diagonalization with overlap
     ethr =  1.00E-02,  avg # of iterations =  4.7

     Threshold (ethr) on eigenvalues was too large:
     Diagonalizing with lowered threshold

     Davidson diagonalization with overlap
     ethr =  7.44E-04,  avg # of iterations =  1.5

     negative rho (up, down):  2.146E-04 0.000E+00

     total cpu time spent up to now is       45.3 secs

     total energy              =     -93.35277432 Ry
     estimated scf accuracy    <       0.06564889 Ry

     iteration #  2     ecut=    70.00 Ry     beta= 0.70
     Davidson diagonalization with overlap
     ethr =  8.21E-04,  avg # of iterations =  2.8

     negative rho (up, down):  2.137E-04 0.000E+00

     total cpu time spent up to now is       63.2 secs

     total energy              =     -93.35938838 Ry
     estimated scf accuracy    <       0.00190972 Ry

     iteration #  3     ecut=    70.00 Ry     beta= 0.70
     Davidson diagonalization with overlap
     ethr =  2.39E-05,  avg # of iterations =  9.4

     negative rho (up, down):  2.125E-04 0.000E+00

     total cpu time spent up to now is       91.1 secs

     total energy              =     -93.35959490 Ry
     estimated scf accuracy    <       0.00013502 Ry

     iteration #  4     ecut=    70.00 Ry     beta= 0.70
     Davidson diagonalization with overlap
     c_bands:  1 eigenvalues not converged
     c_bands:  1 eigenvalues not converged
     c_bands:  1 eigenvalues not converged
     ethr =  1.69E-06,  avg # of iterations =  7.3

     negative rho (up, down):  2.122E-04 0.000E+00

     total cpu time spent up to now is      113.4 secs

     total energy              =     -93.35959002 Ry
     estimated scf accuracy    <       0.00019718 Ry

     iteration #  5     ecut=    70.00 Ry     beta= 0.70
     Davidson diagonalization with overlap
     c_bands:  1 eigenvalues not converged
     ethr =  1.69E-06,  avg # of iterations =  2.9

     negative rho (up, down):  2.116E-04 0.000E+00

     total cpu time spent up to now is      128.8 secs

     total energy              =     -93.35962178 Ry
     estimated scf accuracy    <       0.00000116 Ry

     iteration #  6     ecut=    70.00 Ry     beta= 0.70
     Davidson diagonalization with overlap
     ethr =  1.45E-08,  avg # of iterations =  3.1

     negative rho (up, down):  2.113E-04 0.000E+00

     total cpu time spent up to now is      144.4 secs

     total energy              =     -93.35962234 Ry
     estimated scf accuracy    <       0.00000010 Ry

     iteration #  7     ecut=    70.00 Ry     beta= 0.70
     Davidson diagonalization with overlap
     ethr =  1.30E-09,  avg # of iterations =  2.2

     negative rho (up, down):  2.112E-04 0.000E+00

     total cpu time spent up to now is      158.9 secs

     total energy              =     -93.35962237 Ry
     estimated scf accuracy    <       0.00000001 Ry

     iteration #  8     ecut=    70.00 Ry     beta= 0.70
     Davidson diagonalization with overlap
     ethr =  1.33E-10,  avg # of iterations =  2.5

     negative rho (up, down):  2.112E-04 0.000E+00

     total cpu time spent up to now is      174.3 secs

     End of self-consistent calculation

          k = 0.0000 0.0000 0.0000 ( 17225 PWs)   bands (ev):

   -14.0113  -6.0527  -4.1664  -4.1663  -0.9862  -0.2868   0.0827   0.0831

          k = 0.1000 0.0577 0.0000 ( 17241 PWs)   bands (ev):

   -13.8944  -5.9769  -4.9785  -4.3676  -0.5622  -0.2060   0.3043   0.5100

          k = 0.2000 0.1155 0.0000 ( 17231 PWs)   bands (ev):

   -13.5476  -6.6367  -5.4975  -4.7891  -0.9493  -0.0763   1.5475   1.5970

          k = 0.3000 0.1732 0.0000 ( 17245 PWs)   bands (ev):

   -12.9865  -8.1098  -5.1906  -5.0027  -1.4530  -0.5318   1.4775   3.0014

          k = 0.4000 0.2309 0.0000 ( 17241 PWs)   bands (ev):

   -12.2714  -9.4180  -5.4588  -4.3384  -1.8532  -1.4761   2.0855   3.3694

          k =-0.5000-0.2887 0.0000 ( 17242 PWs)   bands (ev):

   -11.7791 -10.1125  -5.5518  -3.8976  -2.2415  -1.7987   2.7092   3.7725

          k = 0.2000 0.0000 0.0000 ( 17251 PWs)   bands (ev):

   -13.6624  -6.2287  -5.5376  -4.8031  -0.1422  -0.0365   0.0720   1.6958

          k = 0.3000 0.0577 0.0000 ( 17252 PWs)   bands (ev):

   -13.2067  -7.4902  -5.3890  -5.1912  -0.5765  -0.1694   1.2471   1.5537

          k = 0.4000 0.1155 0.0000 ( 17232 PWs)   bands (ev):

   -12.5557  -8.8317  -5.8176  -4.5863  -1.2402  -0.7475   1.8194   2.6941

          k = 0.5000 0.1732 0.0000 ( 17231 PWs)   bands (ev):

   -11.8468  -9.9118  -6.0397  -3.9271  -2.0807  -1.0339   2.3792   2.9948

          k =-0.4000-0.3464 0.0000 ( 17231 PWs)   bands (ev):

   -11.8468  -9.9118  -6.0397  -3.9271  -2.0807  -1.0339   2.3792   2.9948

          k =-0.3000-0.2887 0.0000 ( 17232 PWs)   bands (ev):

   -12.5557  -8.8317  -5.8177  -4.5864  -1.2402  -0.7474   1.8194   2.6943

          k =-0.2000-0.2309 0.0000 ( 17252 PWs)   bands (ev):

   -13.2067  -7.4901  -5.3891  -5.1912  -0.5764  -0.1693   1.2475   1.5537

          k =-0.1000-0.1732 0.0000 ( 17251 PWs)   bands (ev):

   -13.6624  -6.2287  -5.5376  -4.8031  -0.1422  -0.0360   0.0720   1.6467

          k = 0.0000-0.1155 0.0000 ( 17241 PWs)   bands (ev):

   -13.8944  -5.9769  -4.9786  -4.3675  -0.5619  -0.2060   0.3039   0.5103

          k = 0.4000 0.0000 0.0000 ( 17248 PWs)   bands (ev):

   -12.6543  -8.4980  -6.1940  -4.6735  -0.9297   0.7794   1.0428   1.8173

          k = 0.5000 0.0577 0.0000 ( 17223 PWs)   bands (ev):

   -11.9391  -9.5503  -6.7245  -3.9956  -1.7857   0.6269   1.8261   2.5348

          k = 0.6000 0.1155 0.0000 ( 17200 PWs)   bands (ev):

   -11.4060 -10.2108  -6.8984  -3.4994  -2.3631   0.5339   1.6342   3.3250

          k =-0.3000-0.4041 0.0000 ( 17227 PWs)   bands (ev):

   -11.9392  -9.5502  -6.7245  -3.9957  -1.7856   0.6270   1.8261   2.5329

          k =-0.2000-0.3464 0.0000 ( 17248 PWs)   bands (ev):

   -12.6544  -8.4979  -6.1940  -4.6736  -0.9297   0.7796   1.0433   1.8172

          k =-0.1000-0.2887 0.0000 ( 17252 PWs)   bands (ev):

   -13.2068  -7.4902  -5.3889  -5.1912  -0.5762  -0.1693   1.2473   1.5536

          k = 0.0000-0.2309 0.0000 ( 17231 PWs)   bands (ev):

   -13.5476  -6.6368  -5.4975  -4.7889  -0.9491  -0.0763   1.5469   1.5971

          k = 0.6000 0.0000 0.0000 ( 17212 PWs)   bands (ev):

   -11.2024 -10.2982  -7.2869  -3.3011  -2.4635   1.2477   2.2783   2.6847

          k = 0.7000 0.0577 0.0000 ( 17208 PWs)   bands (ev):

   -11.2026 -10.2980  -7.2869  -3.3013  -2.4634   1.2477   2.2784   2.6851

          k =-0.2000-0.4619 0.0000 ( 17223 PWs)   bands (ev):

   -11.9392  -9.5502  -6.7244  -3.9957  -1.7856   0.6274   1.8261   2.5330

          k =-0.1000-0.4041 0.0000 ( 17232 PWs)   bands (ev):

   -12.5558  -8.8317  -5.8175  -4.5864  -1.2401  -0.7472   1.8193   2.6944

          k =-0.0000-0.3464 0.0000 ( 17245 PWs)   bands (ev):

   -12.9866  -8.1099  -5.1904  -5.0027  -1.4527  -0.5318   1.4773   3.0017

          k = 0.8000 0.0000 0.0000 ( 17202 PWs)   bands (ev):

   -11.4062 -10.2107  -6.8983  -3.4996  -2.3631   0.5343   1.6343   3.3247

          k =-0.1000-0.5196 0.0000 ( 17233 PWs)   bands (ev):

   -11.8470  -9.9117  -6.0396  -3.9272  -2.0807  -1.0335   2.3792   2.9949

          k = 0.0000-0.4619 0.0000 ( 17241 PWs)   bands (ev):

   -12.2715  -9.4180  -5.4586  -4.3385  -1.8530  -1.4761   2.0854   3.7609

          k =-1.0000 0.0000 0.0000 ( 17242 PWs)   bands (ev):

   -11.7793 -10.1124  -5.5516  -3.8977  -2.2415  -1.7984   2.7091   3.7728

     the Fermi energy is    -2.8824 ev

!    total energy              =     -93.35962237 Ry

     total all-electron energy =     -1160.051352 Ry
     estimated scf accuracy    <          3.0E-10 Ry
     smearing contrib. (-TS)   =      -0.00000005 Ry
     internal energy E=F+TS    =     -93.35962232 Ry

     The total energy is F=E-TS. E is the sum of the following terms:
     one-electron contribution =     -80.75502170 Ry
     hartree contribution      =      41.59886489 Ry
     xc contribution           =     -12.15076521 Ry
     ewald contribution        =      29.13615741 Ry
     one-center paw contrib.   =     -71.18885770 Ry

     convergence has been achieved in   8 iterations

     Writing all to output data dir ./silicene.save/

     init_run     :     12.75s CPU      9.05s WALL (       1 calls)
     electrons    :    263.37s CPU    164.89s WALL (       1 calls)

     Called by init_run:
     wfcinit      :      8.35s CPU      5.14s WALL (       1 calls)
     potinit      :      1.06s CPU      0.61s WALL (       1 calls)
     hinit0       :      2.31s CPU      2.26s WALL (       1 calls)

     Called by electrons:
     c_bands      :    215.63s CPU    135.11s WALL (       9 calls)
     sum_band     :     39.17s CPU     24.84s WALL (       9 calls)
     v_of_rho     :      1.10s CPU      0.58s WALL (       9 calls)
     newd         :      4.19s CPU      2.79s WALL (       9 calls)
     PAW_pot      :      4.44s CPU      2.30s WALL (       9 calls)
     mix_rho      :      0.20s CPU      0.11s WALL (       9 calls)

     Called by c_bands:
     init_us_2    :      5.39s CPU      3.39s WALL (     589 calls)
     init_us_2:cp :      5.38s CPU      3.39s WALL (     589 calls)
     cegterg      :    201.21s CPU    126.32s WALL (     279 calls)

     Called by *egterg:
     cdiaghg      :      0.44s CPU      0.24s WALL (    1377 calls)
     h_psi        :    157.01s CPU     96.59s WALL (    1439 calls)
     s_psi        :      7.64s CPU      4.87s WALL (    1439 calls)
     g_psi        :      4.19s CPU      2.93s WALL (    1129 calls)

     Called by h_psi:
     h_psi:calbec :     15.44s CPU      8.99s WALL (    1439 calls)
     vloc_psi     :    133.85s CPU     82.74s WALL (    1439 calls)
     add_vuspsi   :      4.99s CPU      2.86s WALL (    1439 calls)

     General routines
     calbec       :     19.03s CPU     11.03s WALL (    1718 calls)
     fft          :      1.68s CPU      1.44s WALL (     100 calls)
     ffts         :      0.13s CPU      0.09s WALL (       9 calls)
     fftw         :    147.23s CPU     90.92s WALL (   15340 calls)

     Parallel routines

     PWSCF        :   4m36.93s CPU   2m54.98s WALL


   This run was terminated on:  17:21:42  12Jul2023            

=------------------------------------------------------------------------------=
   JOB DONE.
=------------------------------------------------------------------------------=
