### Running on host: qmobile

     Program PWSCF v.7.0 starts on 12Jul2023 at 17: 7:25 

     This program is part of the open-source Quantum ESPRESSO suite
     for quantum simulation of materials; please cite
         "P. Giannozzi et al., J. Phys.:Condens. Matter 21 395502 (2009);
         "P. Giannozzi et al., J. Phys.:Condens. Matter 29 465901 (2017);
         "P. Giannozzi et al., J. Chem. Phys. 152 154105 (2020);
          URL http://www.quantum-espresso.org", 
     in publications or presentations arising from this work. More details at
     http://www.quantum-espresso.org/quote

     Parallel version (MPI & OpenMP), running on       2 processor cores
     Number of MPI processes:                 1
     Threads/MPI process:                     2

     MPI processes distributed on     1 nodes
     89891 MiB available memory on the printing compute node when the environment starts

     Reading input from silicene_scf_ecutwfc-10.in

     Current dimensions of program PWSCF are:
     Max number of different atomic species (ntypx) = 10
     Max number of k-points (npk) =  40000
     Max angular momentum in pseudopotentials (lmaxx) =  4
     file Si.pbe-n-kjpaw_psl.1.0.0.UPF: wavefunction(s)  3S 3P renormalized

     Subspace diagonalization in iterative solution of the eigenvalue problem:
     a serial algorithm will be used


     G-vector sticks info
     --------------------
     sticks:   dense  smooth     PW     G-vecs:    dense   smooth      PW
     Sum         583     151     61                59691     7523    1933

     Using Slab Decomposition



     bravais-lattice index     =           -9
     lattice parameter (alat)  =       7.2962  a.u.
     unit-cell volume          =    1742.4604 (a.u.)^3
     number of atoms/cell      =            2
     number of atomic types    =            1
     number of electrons       =         8.00
     number of Kohn-Sham states=            8
     kinetic-energy cutoff     =      10.0000  Ry
     charge density cutoff     =     160.0000  Ry
     scf convergence threshold =      1.0E-08
     mixing beta               =       0.7000
     number of iterations used =            8  plain     mixing
     Exchange-correlation= SLA  PW   PBX  PBC
                           (   1   4   3   4   0   0   0)

     celldm(1)=   7.296200  celldm(2)=   1.732100  celldm(3)=   5.180000
     celldm(4)=   0.000000  celldm(5)=   0.000000  celldm(6)=   0.000000

     crystal axes: (cart. coord. in units of alat)
               a(1) = (   0.500000  -0.866050   0.000000 )  
               a(2) = (   0.500000   0.866050   0.000000 )  
               a(3) = (   0.000000   0.000000   5.180000 )  

     reciprocal axes: (cart. coord. in units 2 pi/alat)
               b(1) = (  1.000000 -0.577334  0.000000 )  
               b(2) = (  1.000000  0.577334 -0.000000 )  
               b(3) = ( -0.000000  0.000000  0.193050 )  


     PseudoPot. # 1 for Si read from file:
     ../pseudos/Si.pbe-n-kjpaw_psl.1.0.0.UPF
     MD5 check sum: c39c59da582df4a0d9f10159256ea34e
     Pseudo is Projector augmented-wave + core cor, Zval =  4.0
     Generated using &quot;atomic&quot; code by A. Dal Corso  v.6.3
     Shape of augmentation charge: PSQ
     Using radial grid of 1141 points,  6 beta functions with: 
                l(1) =   0
                l(2) =   0
                l(3) =   1
                l(4) =   1
                l(5) =   2
                l(6) =   2
     Q(r) pseudized with 0 coefficients 


     atomic species   valence    mass     pseudopotential
        Si             4.00    28.08550     Si( 1.00)

      2 Sym. Ops. (no inversion) found



   Cartesian axes

     site n.     atom                  positions (alat units)
         1           Si  tau(   1) = (   0.5000000  -0.2886833   2.0476077  )
         2           Si  tau(   2) = (   0.5000000   0.2886833   2.1611423  )

     number of k points=    31  Gaussian smearing, width (Ry)=  0.0100
                       cart. coord. in units 2pi/alat
        k(    1) = (   0.0000000   0.0000000   0.0000000), wk =   0.0200000
        k(    2) = (   0.1000000   0.0577334   0.0000000), wk =   0.0800000
        k(    3) = (   0.2000000   0.1154668   0.0000000), wk =   0.0800000
        k(    4) = (   0.3000000   0.1732002   0.0000000), wk =   0.0800000
        k(    5) = (   0.4000000   0.2309335   0.0000000), wk =   0.0800000
        k(    6) = (  -0.5000000  -0.2886669   0.0000000), wk =   0.0400000
        k(    7) = (   0.2000000   0.0000000   0.0000000), wk =   0.0400000
        k(    8) = (   0.3000000   0.0577334   0.0000000), wk =   0.0800000
        k(    9) = (   0.4000000   0.1154668   0.0000000), wk =   0.0800000
        k(   10) = (   0.5000000   0.1732002   0.0000000), wk =   0.0800000
        k(   11) = (  -0.4000000  -0.3464003   0.0000000), wk =   0.0800000
        k(   12) = (  -0.3000000  -0.2886669   0.0000000), wk =   0.0800000
        k(   13) = (  -0.2000000  -0.2309335   0.0000000), wk =   0.0800000
        k(   14) = (  -0.1000000  -0.1732002   0.0000000), wk =   0.0800000
        k(   15) = (   0.0000000  -0.1154668   0.0000000), wk =   0.0400000
        k(   16) = (   0.4000000   0.0000000   0.0000000), wk =   0.0400000
        k(   17) = (   0.5000000   0.0577334   0.0000000), wk =   0.0800000
        k(   18) = (   0.6000000   0.1154668   0.0000000), wk =   0.0800000
        k(   19) = (  -0.3000000  -0.4041337   0.0000000), wk =   0.0800000
        k(   20) = (  -0.2000000  -0.3464003   0.0000000), wk =   0.0800000
        k(   21) = (  -0.1000000  -0.2886669   0.0000000), wk =   0.0800000
        k(   22) = (   0.0000000  -0.2309335   0.0000000), wk =   0.0400000
        k(   23) = (   0.6000000   0.0000000   0.0000000), wk =   0.0400000
        k(   24) = (   0.7000000   0.0577334   0.0000000), wk =   0.0800000
        k(   25) = (  -0.2000000  -0.4618671   0.0000000), wk =   0.0800000
        k(   26) = (  -0.1000000  -0.4041337   0.0000000), wk =   0.0800000
        k(   27) = (  -0.0000000  -0.3464003   0.0000000), wk =   0.0400000
        k(   28) = (   0.8000000   0.0000000   0.0000000), wk =   0.0400000
        k(   29) = (  -0.1000000  -0.5196005   0.0000000), wk =   0.0800000
        k(   30) = (   0.0000000  -0.4618671   0.0000000), wk =   0.0400000
        k(   31) = (  -1.0000000   0.0000000   0.0000000), wk =   0.0200000

     Dense  grid:    59691 G-vectors     FFT dimensions: (  30,  30, 160)

     Smooth grid:     7523 G-vectors     FFT dimensions: (  15,  15,  80)

     Estimated max dynamical RAM per process >     210.70 MB

     Check: negative core charge=   -0.000002

     Initial potential from superposition of free atoms

     starting charge       7.9989, renormalised to       8.0000

     negative rho (up, down):  2.275E-04 0.000E+00
     Starting wfcs are    8 randomized atomic wfcs
     Checking if some PAW data can be deallocated... 

     total cpu time spent up to now is        4.1 secs

     per-process dynamical memory:    39.8 Mb

     Self-consistent Calculation

     iteration #  1     ecut=    10.00 Ry     beta= 0.70
     Davidson diagonalization with overlap
     ethr =  1.00E-02,  avg # of iterations =  4.5

     Threshold (ethr) on eigenvalues was too large:
     Diagonalizing with lowered threshold

     Davidson diagonalization with overlap
     ethr =  7.41E-04,  avg # of iterations =  1.5

     negative rho (up, down):  2.076E-04 0.000E+00

     total cpu time spent up to now is       12.3 secs

     total energy              =     -93.34048497 Ry
     estimated scf accuracy    <       0.06355555 Ry

     iteration #  2     ecut=    10.00 Ry     beta= 0.70
     Davidson diagonalization with overlap
     ethr =  7.94E-04,  avg # of iterations =  2.5

     negative rho (up, down):  2.153E-04 0.000E+00

     total cpu time spent up to now is       15.6 secs

     total energy              =     -93.34675214 Ry
     estimated scf accuracy    <       0.00191017 Ry

     iteration #  3     ecut=    10.00 Ry     beta= 0.70
     Davidson diagonalization with overlap
     c_bands:  1 eigenvalues not converged
     ethr =  2.39E-05,  avg # of iterations =  9.7

     negative rho (up, down):  2.380E-04 0.000E+00

     total cpu time spent up to now is       22.0 secs

     total energy              =     -93.34687486 Ry
     estimated scf accuracy    <       0.00012687 Ry

     iteration #  4     ecut=    10.00 Ry     beta= 0.70
     Davidson diagonalization with overlap
     c_bands:  1 eigenvalues not converged
     c_bands:  1 eigenvalues not converged
     c_bands:  1 eigenvalues not converged
     ethr =  1.59E-06,  avg # of iterations =  8.7

     negative rho (up, down):  2.149E-04 0.000E+00

     total cpu time spent up to now is       26.8 secs

     total energy              =     -93.34686929 Ry
     estimated scf accuracy    <       0.00019768 Ry

     iteration #  5     ecut=    10.00 Ry     beta= 0.70
     Davidson diagonalization with overlap
     c_bands:  1 eigenvalues not converged
     ethr =  1.59E-06,  avg # of iterations =  3.2

     negative rho (up, down):  2.042E-04 0.000E+00

     total cpu time spent up to now is       30.8 secs

     total energy              =     -93.34690020 Ry
     estimated scf accuracy    <       0.00000064 Ry

     iteration #  6     ecut=    10.00 Ry     beta= 0.70
     Davidson diagonalization with overlap
     ethr =  8.02E-09,  avg # of iterations =  3.3

     negative rho (up, down):  2.032E-04 0.000E+00

     total cpu time spent up to now is       34.8 secs

     total energy              =     -93.34690060 Ry
     estimated scf accuracy    <       0.00000010 Ry

     iteration #  7     ecut=    10.00 Ry     beta= 0.70
     Davidson diagonalization with overlap
     ethr =  1.19E-09,  avg # of iterations =  1.8

     negative rho (up, down):  2.031E-04 0.000E+00

     total cpu time spent up to now is       38.9 secs

     End of self-consistent calculation

          k = 0.0000 0.0000 0.0000 (   951 PWs)   bands (ev):

   -14.0305  -6.0618  -4.1503  -4.1502  -0.9109  -0.2569   0.1741   0.1744

          k = 0.1000 0.0577 0.0000 (   953 PWs)   bands (ev):

   -13.9133  -5.9829  -4.9686  -4.3565  -0.4872  -0.1756   0.3995   0.6110

          k = 0.2000 0.1155 0.0000 (   940 PWs)   bands (ev):

   -13.5650  -6.6310  -5.5064  -4.7867  -0.8640  -0.0469   1.5855   1.7194

          k = 0.3000 0.1732 0.0000 (   924 PWs)   bands (ev):

   -13.0019  -8.1131  -5.1965  -5.0076  -1.3634  -0.4984   1.5361   2.4883

          k = 0.4000 0.2309 0.0000 (   918 PWs)   bands (ev):

   -12.2841  -9.4278  -5.4715  -4.3389  -1.7867  -1.4095   2.1535   3.3714

          k =-0.5000-0.2887 0.0000 (   930 PWs)   bands (ev):

   -11.7907 -10.1273  -5.5677  -3.8970  -2.2166  -1.6926   2.7988   3.5933

          k = 0.2000 0.0000 0.0000 (   943 PWs)   bands (ev):

   -13.6802  -6.2207  -5.5461  -4.7988  -0.1041   0.0431   0.1712   1.6527

          k = 0.3000 0.0577 0.0000 (   925 PWs)   bands (ev):

   -13.2226  -7.4887  -5.3925  -5.1977  -0.5022  -0.1182   1.3446   1.6345

          k = 0.4000 0.1155 0.0000 (   930 PWs)   bands (ev):

   -12.5702  -8.8382  -5.8275  -4.5890  -1.2068  -0.6505   1.8822   2.7847

          k = 0.5000 0.1732 0.0000 (   930 PWs)   bands (ev):

   -11.8585  -9.9241  -6.0527  -3.9270  -2.0586  -0.9236   2.4745   3.0926

          k =-0.4000-0.3464 0.0000 (   930 PWs)   bands (ev):

   -11.8585  -9.9241  -6.0527  -3.9270  -2.0586  -0.9236   2.4745   3.0925

          k =-0.3000-0.2887 0.0000 (   930 PWs)   bands (ev):

   -12.5703  -8.8382  -5.8276  -4.5890  -1.2068  -0.6504   1.8822   2.7854

          k =-0.2000-0.2309 0.0000 (   925 PWs)   bands (ev):

   -13.2226  -7.4886  -5.3925  -5.1977  -0.5022  -0.1181   1.3450   1.6346

          k =-0.1000-0.1732 0.0000 (   943 PWs)   bands (ev):

   -13.6802  -6.2207  -5.5461  -4.7988  -0.1042   0.0436   0.1713   1.6933

          k = 0.0000-0.1155 0.0000 (   953 PWs)   bands (ev):

   -13.9133  -5.9829  -4.9687  -4.3564  -0.4870  -0.1756   0.3991   0.6112

          k = 0.4000 0.0000 0.0000 (   936 PWs)   bands (ev):

   -12.6694  -8.5013  -6.2054  -4.6768  -0.9101   0.9328   1.1296   1.8807

          k = 0.5000 0.0577 0.0000 (   923 PWs)   bands (ev):

   -11.9513  -9.5563  -6.7397  -3.9948  -1.7683   0.7650   1.9408   2.6063

          k = 0.6000 0.1155 0.0000 (   924 PWs)   bands (ev):

   -11.4159 -10.2202  -6.9149  -3.4970  -2.3462   0.6687   1.7485   3.4265

          k =-0.3000-0.4041 0.0000 (   923 PWs)   bands (ev):

   -11.9514  -9.5562  -6.7398  -3.9949  -1.7682   0.7651   1.9407   2.6064

          k =-0.2000-0.3464 0.0000 (   936 PWs)   bands (ev):

   -12.6695  -8.5013  -6.2054  -4.6769  -0.9101   0.9330   1.1301   1.8806

          k =-0.1000-0.2887 0.0000 (   925 PWs)   bands (ev):

   -13.2227  -7.4887  -5.3924  -5.1977  -0.5020  -0.1181   1.3448   1.6345

          k = 0.0000-0.2309 0.0000 (   940 PWs)   bands (ev):

   -13.5650  -6.6311  -5.5064  -4.7866  -0.8638  -0.0470   1.5855   1.7195

          k = 0.6000 0.0000 0.0000 (   928 PWs)   bands (ev):

   -11.2119 -10.3057  -7.3071  -3.2965  -2.4527   1.3610   2.5000   2.7879

          k = 0.7000 0.0577 0.0000 (   928 PWs)   bands (ev):

   -11.2120 -10.3056  -7.3071  -3.2966  -2.4526   1.3610   2.5003   2.7882

          k =-0.2000-0.4619 0.0000 (   923 PWs)   bands (ev):

   -11.9514  -9.5562  -6.7397  -3.9949  -1.7683   0.7655   1.9408   2.6062

          k =-0.1000-0.4041 0.0000 (   930 PWs)   bands (ev):

   -12.5703  -8.8382  -5.8274  -4.5891  -1.2068  -0.6502   1.8822   2.7852

          k =-0.0000-0.3464 0.0000 (   924 PWs)   bands (ev):

   -13.0019  -8.1131  -5.1963  -5.0076  -1.3631  -0.4985   1.5361   3.1502

          k = 0.8000 0.0000 0.0000 (   924 PWs)   bands (ev):

   -11.4161 -10.2200  -6.9148  -3.4972  -2.3462   0.6692   1.7486   3.4264

          k =-0.1000-0.5196 0.0000 (   930 PWs)   bands (ev):

   -11.8587  -9.9240  -6.0525  -3.9271  -2.0586  -0.9232   2.4745   3.0927

          k = 0.0000-0.4619 0.0000 (   918 PWs)   bands (ev):

   -12.2842  -9.4278  -5.4713  -4.3390  -1.7865  -1.4094   2.1534   3.3712

          k =-1.0000 0.0000 0.0000 (   930 PWs)   bands (ev):

   -11.7909 -10.1272  -5.5675  -3.8971  -2.2165  -1.6923   2.7987   3.9729

     the Fermi energy is    -2.8747 ev

!    total energy              =     -93.34690061 Ry

     total all-electron energy =     -1160.038631 Ry
     estimated scf accuracy    <          7.9E-09 Ry
     smearing contrib. (-TS)   =      -0.00000005 Ry
     internal energy E=F+TS    =     -93.34690057 Ry

     The total energy is F=E-TS. E is the sum of the following terms:
     one-electron contribution =     -80.73389268 Ry
     hartree contribution      =      41.58262605 Ry
     xc contribution           =     -12.14685688 Ry
     ewald contribution        =      29.13615741 Ry
     one-center paw contrib.   =     -71.18493447 Ry

     convergence has been achieved in   7 iterations

     Writing all to output data dir ./silicene.save/

     init_run     :      5.41s CPU      3.83s WALL (       1 calls)
     electrons    :     49.45s CPU     34.78s WALL (       1 calls)

     Called by init_run:
     wfcinit      :      1.54s CPU      1.05s WALL (       1 calls)
     potinit      :      1.40s CPU      0.91s WALL (       1 calls)
     hinit0       :      1.84s CPU      1.45s WALL (       1 calls)

     Called by electrons:
     c_bands      :     32.23s CPU     23.19s WALL (       8 calls)
     sum_band     :      9.07s CPU      6.58s WALL (       8 calls)
     v_of_rho     :      1.03s CPU      0.58s WALL (       8 calls)
     newd         :      4.02s CPU      2.74s WALL (       8 calls)
     PAW_pot      :      4.12s CPU      2.31s WALL (       8 calls)
     mix_rho      :      0.09s CPU      0.06s WALL (       8 calls)

     Called by c_bands:
     init_us_2    :      0.85s CPU      0.64s WALL (     527 calls)
     init_us_2:cp :      0.85s CPU      0.64s WALL (     527 calls)
     cegterg      :     31.07s CPU     22.36s WALL (     248 calls)

     Called by *egterg:
     cdiaghg      :      0.39s CPU      0.25s WALL (    1307 calls)
     h_psi        :     19.03s CPU     13.15s WALL (    1369 calls)
     s_psi        :      1.88s CPU      1.51s WALL (    1369 calls)
     g_psi        :      1.25s CPU      0.96s WALL (    1090 calls)

     Called by h_psi:
     h_psi:calbec :      5.20s CPU      3.42s WALL (    1369 calls)
     vloc_psi     :     12.80s CPU      9.00s WALL (    1369 calls)
     add_vuspsi   :      0.40s CPU      0.27s WALL (    1369 calls)

     General routines
     calbec       :      6.32s CPU      4.15s WALL (    1617 calls)
     fft          :      1.44s CPU      1.07s WALL (     103 calls)
     ffts         :      0.51s CPU      0.42s WALL (      16 calls)
     fftw         :     13.06s CPU      9.22s WALL (   13694 calls)
     interpolate  :      0.57s CPU      0.45s WALL (       8 calls)

     Parallel routines

     PWSCF        :     55.26s CPU     39.00s WALL


   This run was terminated on:  17: 8: 4  12Jul2023            

=------------------------------------------------------------------------------=
   JOB DONE.
=------------------------------------------------------------------------------=
