### Running on host: qmobile

     Program PWSCF v.7.0 starts on 12Jul2023 at 17: 9:28 

     This program is part of the open-source Quantum ESPRESSO suite
     for quantum simulation of materials; please cite
         "P. Giannozzi et al., J. Phys.:Condens. Matter 21 395502 (2009);
         "P. Giannozzi et al., J. Phys.:Condens. Matter 29 465901 (2017);
         "P. Giannozzi et al., J. Chem. Phys. 152 154105 (2020);
          URL http://www.quantum-espresso.org", 
     in publications or presentations arising from this work. More details at
     http://www.quantum-espresso.org/quote

     Parallel version (MPI & OpenMP), running on       2 processor cores
     Number of MPI processes:                 1
     Threads/MPI process:                     2

     MPI processes distributed on     1 nodes
     89891 MiB available memory on the printing compute node when the environment starts

     Reading input from silicene_scf_ecutwfc-30.in

     Current dimensions of program PWSCF are:
     Max number of different atomic species (ntypx) = 10
     Max number of k-points (npk) =  40000
     Max angular momentum in pseudopotentials (lmaxx) =  4
     file Si.pbe-n-kjpaw_psl.1.0.0.UPF: wavefunction(s)  3S 3P renormalized

     Subspace diagonalization in iterative solution of the eigenvalue problem:
     a serial algorithm will be used


     G-vector sticks info
     --------------------
     sticks:   dense  smooth     PW     G-vecs:    dense   smooth      PW
     Sum         583     439    151                59691    38601    7547

     Using Slab Decomposition



     bravais-lattice index     =           -9
     lattice parameter (alat)  =       7.2962  a.u.
     unit-cell volume          =    1742.4604 (a.u.)^3
     number of atoms/cell      =            2
     number of atomic types    =            1
     number of electrons       =         8.00
     number of Kohn-Sham states=            8
     kinetic-energy cutoff     =      30.0000  Ry
     charge density cutoff     =     160.0000  Ry
     scf convergence threshold =      1.0E-08
     mixing beta               =       0.7000
     number of iterations used =            8  plain     mixing
     Exchange-correlation= SLA  PW   PBX  PBC
                           (   1   4   3   4   0   0   0)

     celldm(1)=   7.296200  celldm(2)=   1.732100  celldm(3)=   5.180000
     celldm(4)=   0.000000  celldm(5)=   0.000000  celldm(6)=   0.000000

     crystal axes: (cart. coord. in units of alat)
               a(1) = (   0.500000  -0.866050   0.000000 )  
               a(2) = (   0.500000   0.866050   0.000000 )  
               a(3) = (   0.000000   0.000000   5.180000 )  

     reciprocal axes: (cart. coord. in units 2 pi/alat)
               b(1) = (  1.000000 -0.577334  0.000000 )  
               b(2) = (  1.000000  0.577334 -0.000000 )  
               b(3) = ( -0.000000  0.000000  0.193050 )  


     PseudoPot. # 1 for Si read from file:
     ../pseudos/Si.pbe-n-kjpaw_psl.1.0.0.UPF
     MD5 check sum: c39c59da582df4a0d9f10159256ea34e
     Pseudo is Projector augmented-wave + core cor, Zval =  4.0
     Generated using &quot;atomic&quot; code by A. Dal Corso  v.6.3
     Shape of augmentation charge: PSQ
     Using radial grid of 1141 points,  6 beta functions with: 
                l(1) =   0
                l(2) =   0
                l(3) =   1
                l(4) =   1
                l(5) =   2
                l(6) =   2
     Q(r) pseudized with 0 coefficients 


     atomic species   valence    mass     pseudopotential
        Si             4.00    28.08550     Si( 1.00)

      2 Sym. Ops. (no inversion) found



   Cartesian axes

     site n.     atom                  positions (alat units)
         1           Si  tau(   1) = (   0.5000000  -0.2886833   2.0476077  )
         2           Si  tau(   2) = (   0.5000000   0.2886833   2.1611423  )

     number of k points=    31  Gaussian smearing, width (Ry)=  0.0100
                       cart. coord. in units 2pi/alat
        k(    1) = (   0.0000000   0.0000000   0.0000000), wk =   0.0200000
        k(    2) = (   0.1000000   0.0577334   0.0000000), wk =   0.0800000
        k(    3) = (   0.2000000   0.1154668   0.0000000), wk =   0.0800000
        k(    4) = (   0.3000000   0.1732002   0.0000000), wk =   0.0800000
        k(    5) = (   0.4000000   0.2309335   0.0000000), wk =   0.0800000
        k(    6) = (  -0.5000000  -0.2886669   0.0000000), wk =   0.0400000
        k(    7) = (   0.2000000   0.0000000   0.0000000), wk =   0.0400000
        k(    8) = (   0.3000000   0.0577334   0.0000000), wk =   0.0800000
        k(    9) = (   0.4000000   0.1154668   0.0000000), wk =   0.0800000
        k(   10) = (   0.5000000   0.1732002   0.0000000), wk =   0.0800000
        k(   11) = (  -0.4000000  -0.3464003   0.0000000), wk =   0.0800000
        k(   12) = (  -0.3000000  -0.2886669   0.0000000), wk =   0.0800000
        k(   13) = (  -0.2000000  -0.2309335   0.0000000), wk =   0.0800000
        k(   14) = (  -0.1000000  -0.1732002   0.0000000), wk =   0.0800000
        k(   15) = (   0.0000000  -0.1154668   0.0000000), wk =   0.0400000
        k(   16) = (   0.4000000   0.0000000   0.0000000), wk =   0.0400000
        k(   17) = (   0.5000000   0.0577334   0.0000000), wk =   0.0800000
        k(   18) = (   0.6000000   0.1154668   0.0000000), wk =   0.0800000
        k(   19) = (  -0.3000000  -0.4041337   0.0000000), wk =   0.0800000
        k(   20) = (  -0.2000000  -0.3464003   0.0000000), wk =   0.0800000
        k(   21) = (  -0.1000000  -0.2886669   0.0000000), wk =   0.0800000
        k(   22) = (   0.0000000  -0.2309335   0.0000000), wk =   0.0400000
        k(   23) = (   0.6000000   0.0000000   0.0000000), wk =   0.0400000
        k(   24) = (   0.7000000   0.0577334   0.0000000), wk =   0.0800000
        k(   25) = (  -0.2000000  -0.4618671   0.0000000), wk =   0.0800000
        k(   26) = (  -0.1000000  -0.4041337   0.0000000), wk =   0.0800000
        k(   27) = (  -0.0000000  -0.3464003   0.0000000), wk =   0.0400000
        k(   28) = (   0.8000000   0.0000000   0.0000000), wk =   0.0400000
        k(   29) = (  -0.1000000  -0.5196005   0.0000000), wk =   0.0800000
        k(   30) = (   0.0000000  -0.4618671   0.0000000), wk =   0.0400000
        k(   31) = (  -1.0000000   0.0000000   0.0000000), wk =   0.0200000

     Dense  grid:    59691 G-vectors     FFT dimensions: (  30,  30, 160)

     Smooth grid:    38601 G-vectors     FFT dimensions: (  25,  25, 135)

     Estimated max dynamical RAM per process >     228.34 MB

     Check: negative core charge=   -0.000002

     Initial potential from superposition of free atoms

     starting charge       7.9989, renormalised to       8.0000

     negative rho (up, down):  2.275E-04 0.000E+00
     Starting wfcs are    8 randomized atomic wfcs
     Checking if some PAW data can be deallocated... 

     total cpu time spent up to now is        7.7 secs

     per-process dynamical memory:    58.1 Mb

     Self-consistent Calculation

     iteration #  1     ecut=    30.00 Ry     beta= 0.70
     Davidson diagonalization with overlap
     ethr =  1.00E-02,  avg # of iterations =  4.6

     Threshold (ethr) on eigenvalues was too large:
     Diagonalizing with lowered threshold

     Davidson diagonalization with overlap
     ethr =  7.50E-04,  avg # of iterations =  1.3

     negative rho (up, down):  2.141E-04 0.000E+00

     total cpu time spent up to now is       30.0 secs

     total energy              =     -93.35253220 Ry
     estimated scf accuracy    <       0.06574065 Ry

     iteration #  2     ecut=    30.00 Ry     beta= 0.70
     Davidson diagonalization with overlap
     ethr =  8.22E-04,  avg # of iterations =  2.9

     negative rho (up, down):  2.137E-04 0.000E+00

     total cpu time spent up to now is       39.9 secs

     total energy              =     -93.35916952 Ry
     estimated scf accuracy    <       0.00191267 Ry

     iteration #  3     ecut=    30.00 Ry     beta= 0.70
     Davidson diagonalization with overlap
     c_bands:  1 eigenvalues not converged
     c_bands:  1 eigenvalues not converged
     ethr =  2.39E-05,  avg # of iterations =  9.4

     negative rho (up, down):  2.133E-04 0.000E+00

     total cpu time spent up to now is       56.0 secs

     total energy              =     -93.35936278 Ry
     estimated scf accuracy    <       0.00013834 Ry

     iteration #  4     ecut=    30.00 Ry     beta= 0.70
     Davidson diagonalization with overlap
     c_bands:  1 eigenvalues not converged
     ethr =  1.73E-06,  avg # of iterations =  7.0

     negative rho (up, down):  2.126E-04 0.000E+00

     total cpu time spent up to now is       69.8 secs

     total energy              =     -93.35935568 Ry
     estimated scf accuracy    <       0.00022587 Ry

     iteration #  5     ecut=    30.00 Ry     beta= 0.70
     Davidson diagonalization with overlap
     c_bands:  1 eigenvalues not converged
     ethr =  1.73E-06,  avg # of iterations =  2.8

     negative rho (up, down):  2.119E-04 0.000E+00

     total cpu time spent up to now is       79.5 secs

     total energy              =     -93.35939125 Ry
     estimated scf accuracy    <       0.00000116 Ry

     iteration #  6     ecut=    30.00 Ry     beta= 0.70
     Davidson diagonalization with overlap
     ethr =  1.45E-08,  avg # of iterations =  2.7

     negative rho (up, down):  2.116E-04 0.000E+00

     total cpu time spent up to now is       89.0 secs

     total energy              =     -93.35939185 Ry
     estimated scf accuracy    <       0.00000012 Ry

     iteration #  7     ecut=    30.00 Ry     beta= 0.70
     Davidson diagonalization with overlap
     ethr =  1.44E-09,  avg # of iterations =  2.1

     negative rho (up, down):  2.115E-04 0.000E+00

     total cpu time spent up to now is       98.0 secs

     total energy              =     -93.35939187 Ry
     estimated scf accuracy    <       0.00000001 Ry

     iteration #  8     ecut=    30.00 Ry     beta= 0.70
     Davidson diagonalization with overlap
     ethr =  1.86E-10,  avg # of iterations =  2.2

     negative rho (up, down):  2.115E-04 0.000E+00

     total cpu time spent up to now is      107.3 secs

     End of self-consistent calculation

          k = 0.0000 0.0000 0.0000 (  4829 PWs)   bands (ev):

   -14.0111  -6.0526  -4.1661  -4.1660  -0.9859  -0.2867   0.0834   0.0837

          k = 0.1000 0.0577 0.0000 (  4855 PWs)   bands (ev):

   -13.8942  -5.9768  -4.9783  -4.3673  -0.5618  -0.2059   0.3049   0.5107

          k = 0.2000 0.1155 0.0000 (  4861 PWs)   bands (ev):

   -13.5473  -6.6365  -5.4973  -4.7889  -0.9489  -0.0761   1.5475   1.5977

          k = 0.3000 0.1732 0.0000 (  4841 PWs)   bands (ev):

   -12.9863  -8.1096  -5.1904  -5.0026  -1.4527  -0.5315   1.4776   3.0017

          k = 0.4000 0.2309 0.0000 (  4845 PWs)   bands (ev):

   -12.2712  -9.4178  -5.4587  -4.3382  -1.8529  -1.4758   2.0857   3.7617

          k =-0.5000-0.2887 0.0000 (  4826 PWs)   bands (ev):

   -11.7789 -10.1124  -5.5517  -3.8974  -2.2413  -1.7984   2.7095   3.7734

          k = 0.2000 0.0000 0.0000 (  4879 PWs)   bands (ev):

   -13.6622  -6.2285  -5.5375  -4.8029  -0.1420  -0.0361   0.0724   1.6957

          k = 0.3000 0.0577 0.0000 (  4854 PWs)   bands (ev):

   -13.2065  -7.4900  -5.3888  -5.1911  -0.5761  -0.1691   1.2475   1.5540

          k = 0.4000 0.1155 0.0000 (  4826 PWs)   bands (ev):

   -12.5555  -8.8316  -5.8175  -4.5862  -1.2399  -0.7471   1.8196   2.6948

          k = 0.5000 0.1732 0.0000 (  4831 PWs)   bands (ev):

   -11.8466  -9.9116  -6.0396  -3.9269  -2.0804  -1.0335   2.3795   2.9951

          k =-0.4000-0.3464 0.0000 (  4831 PWs)   bands (ev):

   -11.8466  -9.9116  -6.0396  -3.9270  -2.0804  -1.0334   2.3795   2.9951

          k =-0.3000-0.2887 0.0000 (  4826 PWs)   bands (ev):

   -12.5555  -8.8315  -5.8176  -4.5862  -1.2399  -0.7470   1.8195   2.6957

          k =-0.2000-0.2309 0.0000 (  4854 PWs)   bands (ev):

   -13.2065  -7.4900  -5.3889  -5.1911  -0.5760  -0.1690   1.2480   1.5541

          k =-0.1000-0.1732 0.0000 (  4879 PWs)   bands (ev):

   -13.6622  -6.2285  -5.5375  -4.8029  -0.1420  -0.0356   0.0724   1.6531

          k = 0.0000-0.1155 0.0000 (  4855 PWs)   bands (ev):

   -13.8942  -5.9768  -4.9784  -4.3672  -0.5615  -0.2059   0.3044   0.5109

          k = 0.4000 0.0000 0.0000 (  4824 PWs)   bands (ev):

   -12.6541  -8.4978  -6.1939  -4.6734  -0.9294   0.7800   1.0433   1.8175

          k = 0.5000 0.0577 0.0000 (  4829 PWs)   bands (ev):

   -11.9389  -9.5501  -6.7244  -3.9954  -1.7854   0.6274   1.8265   2.5332

          k = 0.6000 0.1155 0.0000 (  4816 PWs)   bands (ev):

   -11.4058 -10.2106  -6.8983  -3.4993  -2.3629   0.5344   1.6347   3.3259

          k =-0.3000-0.4041 0.0000 (  4829 PWs)   bands (ev):

   -11.9390  -9.5500  -6.7244  -3.9955  -1.7854   0.6275   1.8265   2.5332

          k =-0.2000-0.3464 0.0000 (  4824 PWs)   bands (ev):

   -12.6542  -8.4978  -6.1939  -4.6735  -0.9294   0.7802   1.0438   1.8174

          k =-0.1000-0.2887 0.0000 (  4854 PWs)   bands (ev):

   -13.2065  -7.4900  -5.3888  -5.1911  -0.5758  -0.1690   1.2477   1.5540

          k = 0.0000-0.2309 0.0000 (  4861 PWs)   bands (ev):

   -13.5474  -6.6366  -5.4974  -4.7887  -0.9487  -0.0762   1.5474   1.5978

          k = 0.6000 0.0000 0.0000 (  4808 PWs)   bands (ev):

   -11.2022 -10.2980  -7.2868  -3.3009  -2.4633   1.2481   2.2790   2.6853

          k = 0.7000 0.0577 0.0000 (  4808 PWs)   bands (ev):

   -11.2024 -10.2978  -7.2868  -3.3011  -2.4632   1.2481   2.2792   2.6856

          k =-0.2000-0.4619 0.0000 (  4829 PWs)   bands (ev):

   -11.9390  -9.5500  -6.7243  -3.9955  -1.7854   0.6279   1.8266   2.5342

          k =-0.1000-0.4041 0.0000 (  4826 PWs)   bands (ev):

   -12.5556  -8.8316  -5.8174  -4.5862  -1.2398  -0.7468   1.8195   2.6946

          k =-0.0000-0.3464 0.0000 (  4841 PWs)   bands (ev):

   -12.9864  -8.1097  -5.1902  -5.0026  -1.4524  -0.5316   1.4774   3.0025

          k = 0.8000 0.0000 0.0000 (  4816 PWs)   bands (ev):

   -11.4060 -10.2105  -6.8982  -3.4994  -2.3628   0.5349   1.6347   3.3258

          k =-0.1000-0.5196 0.0000 (  4831 PWs)   bands (ev):

   -11.8468  -9.9116  -6.0394  -3.9271  -2.0804  -1.0331   2.3795   2.9952

          k = 0.0000-0.4619 0.0000 (  4845 PWs)   bands (ev):

   -12.2713  -9.4178  -5.4585  -4.3383  -1.8527  -1.4758   2.0856   3.7616

          k =-1.0000 0.0000 0.0000 (  4830 PWs)   bands (ev):

   -11.7791 -10.1123  -5.5514  -3.8975  -2.2413  -1.7981   2.7093   3.7738

     the Fermi energy is    -2.8822 ev

!    total energy              =     -93.35939188 Ry

     total all-electron energy =     -1160.051122 Ry
     estimated scf accuracy    <          3.3E-10 Ry
     smearing contrib. (-TS)   =      -0.00000005 Ry
     internal energy E=F+TS    =     -93.35939182 Ry

     The total energy is F=E-TS. E is the sum of the following terms:
     one-electron contribution =     -80.75489851 Ry
     hartree contribution      =      41.59884062 Ry
     xc contribution           =     -12.15064946 Ry
     ewald contribution        =      29.13615741 Ry
     one-center paw contrib.   =     -71.18884188 Ry

     convergence has been achieved in   8 iterations

     Writing all to output data dir ./silicene.save/

     init_run     :      8.88s CPU      7.42s WALL (       1 calls)
     electrons    :    144.72s CPU     99.61s WALL (       1 calls)

     Called by init_run:
     wfcinit      :      4.52s CPU      3.05s WALL (       1 calls)
     potinit      :      1.76s CPU      1.60s WALL (       1 calls)
     hinit0       :      1.95s CPU      2.25s WALL (       1 calls)

     Called by electrons:
     c_bands      :    114.70s CPU     80.17s WALL (       9 calls)
     sum_band     :     20.70s CPU     13.63s WALL (       9 calls)
     v_of_rho     :      1.20s CPU      0.69s WALL (       9 calls)
     newd         :      4.52s CPU      3.31s WALL (       9 calls)
     PAW_pot      :      4.68s CPU      2.76s WALL (       9 calls)
     mix_rho      :      0.13s CPU      0.07s WALL (       9 calls)

     Called by c_bands:
     init_us_2    :      2.14s CPU      1.59s WALL (     589 calls)
     init_us_2:cp :      2.13s CPU      1.59s WALL (     589 calls)
     cegterg      :    110.47s CPU     77.36s WALL (     279 calls)

     Called by *egterg:
     cdiaghg      :      0.42s CPU      0.23s WALL (    1333 calls)
     h_psi        :     84.47s CPU     57.80s WALL (    1395 calls)
     s_psi        :      3.86s CPU      2.90s WALL (    1395 calls)
     g_psi        :      3.37s CPU      2.58s WALL (    1085 calls)

     Called by h_psi:
     h_psi:calbec :      8.65s CPU      5.59s WALL (    1395 calls)
     vloc_psi     :     72.91s CPU     50.21s WALL (    1395 calls)
     add_vuspsi   :      1.43s CPU      0.90s WALL (    1395 calls)

     General routines
     calbec       :     10.62s CPU      6.79s WALL (    1674 calls)
     fft          :      1.55s CPU      1.57s WALL (     116 calls)
     ffts         :      0.63s CPU      0.58s WALL (      18 calls)
     fftw         :     77.04s CPU     52.46s WALL (   15220 calls)
     interpolate  :      0.68s CPU      0.60s WALL (       9 calls)

     Parallel routines

     PWSCF        :   2m34.05s CPU   1m47.48s WALL


   This run was terminated on:  17:11:15  12Jul2023            

=------------------------------------------------------------------------------=
   JOB DONE.
=------------------------------------------------------------------------------=
