### Running on host: qmobile

     Program PWSCF v.7.0 starts on 12Jul2023 at 17: 8: 4 

     This program is part of the open-source Quantum ESPRESSO suite
     for quantum simulation of materials; please cite
         "P. Giannozzi et al., J. Phys.:Condens. Matter 21 395502 (2009);
         "P. Giannozzi et al., J. Phys.:Condens. Matter 29 465901 (2017);
         "P. Giannozzi et al., J. Chem. Phys. 152 154105 (2020);
          URL http://www.quantum-espresso.org", 
     in publications or presentations arising from this work. More details at
     http://www.quantum-espresso.org/quote

     Parallel version (MPI & OpenMP), running on       2 processor cores
     Number of MPI processes:                 1
     Threads/MPI process:                     2

     MPI processes distributed on     1 nodes
     89899 MiB available memory on the printing compute node when the environment starts

     Reading input from silicene_scf_ecutwfc-20.in

     Current dimensions of program PWSCF are:
     Max number of different atomic species (ntypx) = 10
     Max number of k-points (npk) =  40000
     Max angular momentum in pseudopotentials (lmaxx) =  4
     file Si.pbe-n-kjpaw_psl.1.0.0.UPF: wavefunction(s)  3S 3P renormalized

     Subspace diagonalization in iterative solution of the eigenvalue problem:
     a serial algorithm will be used


     G-vector sticks info
     --------------------
     sticks:   dense  smooth     PW     G-vecs:    dense   smooth      PW
     Sum         583     295    109                59691    21113    4457

     Using Slab Decomposition



     bravais-lattice index     =           -9
     lattice parameter (alat)  =       7.2962  a.u.
     unit-cell volume          =    1742.4604 (a.u.)^3
     number of atoms/cell      =            2
     number of atomic types    =            1
     number of electrons       =         8.00
     number of Kohn-Sham states=            8
     kinetic-energy cutoff     =      20.0000  Ry
     charge density cutoff     =     160.0000  Ry
     scf convergence threshold =      1.0E-08
     mixing beta               =       0.7000
     number of iterations used =            8  plain     mixing
     Exchange-correlation= SLA  PW   PBX  PBC
                           (   1   4   3   4   0   0   0)

     celldm(1)=   7.296200  celldm(2)=   1.732100  celldm(3)=   5.180000
     celldm(4)=   0.000000  celldm(5)=   0.000000  celldm(6)=   0.000000

     crystal axes: (cart. coord. in units of alat)
               a(1) = (   0.500000  -0.866050   0.000000 )  
               a(2) = (   0.500000   0.866050   0.000000 )  
               a(3) = (   0.000000   0.000000   5.180000 )  

     reciprocal axes: (cart. coord. in units 2 pi/alat)
               b(1) = (  1.000000 -0.577334  0.000000 )  
               b(2) = (  1.000000  0.577334 -0.000000 )  
               b(3) = ( -0.000000  0.000000  0.193050 )  


     PseudoPot. # 1 for Si read from file:
     ../pseudos/Si.pbe-n-kjpaw_psl.1.0.0.UPF
     MD5 check sum: c39c59da582df4a0d9f10159256ea34e
     Pseudo is Projector augmented-wave + core cor, Zval =  4.0
     Generated using &quot;atomic&quot; code by A. Dal Corso  v.6.3
     Shape of augmentation charge: PSQ
     Using radial grid of 1141 points,  6 beta functions with: 
                l(1) =   0
                l(2) =   0
                l(3) =   1
                l(4) =   1
                l(5) =   2
                l(6) =   2
     Q(r) pseudized with 0 coefficients 


     atomic species   valence    mass     pseudopotential
        Si             4.00    28.08550     Si( 1.00)

      2 Sym. Ops. (no inversion) found



   Cartesian axes

     site n.     atom                  positions (alat units)
         1           Si  tau(   1) = (   0.5000000  -0.2886833   2.0476077  )
         2           Si  tau(   2) = (   0.5000000   0.2886833   2.1611423  )

     number of k points=    31  Gaussian smearing, width (Ry)=  0.0100
                       cart. coord. in units 2pi/alat
        k(    1) = (   0.0000000   0.0000000   0.0000000), wk =   0.0200000
        k(    2) = (   0.1000000   0.0577334   0.0000000), wk =   0.0800000
        k(    3) = (   0.2000000   0.1154668   0.0000000), wk =   0.0800000
        k(    4) = (   0.3000000   0.1732002   0.0000000), wk =   0.0800000
        k(    5) = (   0.4000000   0.2309335   0.0000000), wk =   0.0800000
        k(    6) = (  -0.5000000  -0.2886669   0.0000000), wk =   0.0400000
        k(    7) = (   0.2000000   0.0000000   0.0000000), wk =   0.0400000
        k(    8) = (   0.3000000   0.0577334   0.0000000), wk =   0.0800000
        k(    9) = (   0.4000000   0.1154668   0.0000000), wk =   0.0800000
        k(   10) = (   0.5000000   0.1732002   0.0000000), wk =   0.0800000
        k(   11) = (  -0.4000000  -0.3464003   0.0000000), wk =   0.0800000
        k(   12) = (  -0.3000000  -0.2886669   0.0000000), wk =   0.0800000
        k(   13) = (  -0.2000000  -0.2309335   0.0000000), wk =   0.0800000
        k(   14) = (  -0.1000000  -0.1732002   0.0000000), wk =   0.0800000
        k(   15) = (   0.0000000  -0.1154668   0.0000000), wk =   0.0400000
        k(   16) = (   0.4000000   0.0000000   0.0000000), wk =   0.0400000
        k(   17) = (   0.5000000   0.0577334   0.0000000), wk =   0.0800000
        k(   18) = (   0.6000000   0.1154668   0.0000000), wk =   0.0800000
        k(   19) = (  -0.3000000  -0.4041337   0.0000000), wk =   0.0800000
        k(   20) = (  -0.2000000  -0.3464003   0.0000000), wk =   0.0800000
        k(   21) = (  -0.1000000  -0.2886669   0.0000000), wk =   0.0800000
        k(   22) = (   0.0000000  -0.2309335   0.0000000), wk =   0.0400000
        k(   23) = (   0.6000000   0.0000000   0.0000000), wk =   0.0400000
        k(   24) = (   0.7000000   0.0577334   0.0000000), wk =   0.0800000
        k(   25) = (  -0.2000000  -0.4618671   0.0000000), wk =   0.0800000
        k(   26) = (  -0.1000000  -0.4041337   0.0000000), wk =   0.0800000
        k(   27) = (  -0.0000000  -0.3464003   0.0000000), wk =   0.0400000
        k(   28) = (   0.8000000   0.0000000   0.0000000), wk =   0.0400000
        k(   29) = (  -0.1000000  -0.5196005   0.0000000), wk =   0.0800000
        k(   30) = (   0.0000000  -0.4618671   0.0000000), wk =   0.0400000
        k(   31) = (  -1.0000000   0.0000000   0.0000000), wk =   0.0200000

     Dense  grid:    59691 G-vectors     FFT dimensions: (  30,  30, 160)

     Smooth grid:    21113 G-vectors     FFT dimensions: (  24,  24, 108)

     Estimated max dynamical RAM per process >     218.39 MB

     Check: negative core charge=   -0.000002

     Initial potential from superposition of free atoms

     starting charge       7.9989, renormalised to       8.0000

     negative rho (up, down):  2.275E-04 0.000E+00
     Starting wfcs are    8 randomized atomic wfcs
     Checking if some PAW data can be deallocated... 

     total cpu time spent up to now is        7.1 secs

     per-process dynamical memory:    48.6 Mb

     Self-consistent Calculation

     iteration #  1     ecut=    20.00 Ry     beta= 0.70
     Davidson diagonalization with overlap
     ethr =  1.00E-02,  avg # of iterations =  4.6

     Threshold (ethr) on eigenvalues was too large:
     Diagonalizing with lowered threshold

     Davidson diagonalization with overlap
     ethr =  7.50E-04,  avg # of iterations =  1.4

     negative rho (up, down):  2.142E-04 0.000E+00

     total cpu time spent up to now is       22.9 secs

     total energy              =     -93.35093091 Ry
     estimated scf accuracy    <       0.06556161 Ry

     iteration #  2     ecut=    20.00 Ry     beta= 0.70
     Davidson diagonalization with overlap
     ethr =  8.20E-04,  avg # of iterations =  2.8

     negative rho (up, down):  2.145E-04 0.000E+00

     total cpu time spent up to now is       30.8 secs

     total energy              =     -93.35758766 Ry
     estimated scf accuracy    <       0.00190679 Ry

     iteration #  3     ecut=    20.00 Ry     beta= 0.70
     Davidson diagonalization with overlap
     c_bands:  1 eigenvalues not converged
     ethr =  2.38E-05,  avg # of iterations =  9.6

     negative rho (up, down):  2.147E-04 0.000E+00

     total cpu time spent up to now is       43.1 secs

     total energy              =     -93.35777723 Ry
     estimated scf accuracy    <       0.00013933 Ry

     iteration #  4     ecut=    20.00 Ry     beta= 0.70
     Davidson diagonalization with overlap
     c_bands:  1 eigenvalues not converged
     c_bands:  1 eigenvalues not converged
     c_bands:  1 eigenvalues not converged
     ethr =  1.74E-06,  avg # of iterations =  8.3

     negative rho (up, down):  2.140E-04 0.000E+00

     total cpu time spent up to now is       53.6 secs

     total energy              =     -93.35776926 Ry
     estimated scf accuracy    <       0.00023632 Ry

     iteration #  5     ecut=    20.00 Ry     beta= 0.70
     Davidson diagonalization with overlap
     c_bands:  1 eigenvalues not converged
     ethr =  1.74E-06,  avg # of iterations =  3.3

     negative rho (up, down):  2.132E-04 0.000E+00

     total cpu time spent up to now is       61.5 secs

     total energy              =     -93.35780635 Ry
     estimated scf accuracy    <       0.00000107 Ry

     iteration #  6     ecut=    20.00 Ry     beta= 0.70
     Davidson diagonalization with overlap
     ethr =  1.34E-08,  avg # of iterations =  3.2

     negative rho (up, down):  2.129E-04 0.000E+00

     total cpu time spent up to now is       69.3 secs

     total energy              =     -93.35780692 Ry
     estimated scf accuracy    <       0.00000013 Ry

     iteration #  7     ecut=    20.00 Ry     beta= 0.70
     Davidson diagonalization with overlap
     ethr =  1.62E-09,  avg # of iterations =  1.9

     negative rho (up, down):  2.128E-04 0.000E+00

     total cpu time spent up to now is       76.3 secs

     total energy              =     -93.35780694 Ry
     estimated scf accuracy    <       0.00000001 Ry

     iteration #  8     ecut=    20.00 Ry     beta= 0.70
     Davidson diagonalization with overlap
     ethr =  1.62E-10,  avg # of iterations =  2.1

     negative rho (up, down):  2.128E-04 0.000E+00

     total cpu time spent up to now is       83.7 secs

     End of self-consistent calculation

          k = 0.0000 0.0000 0.0000 (  2633 PWs)   bands (ev):

   -14.0102  -6.0523  -4.1619  -4.1618  -0.9835  -0.2833   0.0916   0.0919

          k = 0.1000 0.0577 0.0000 (  2619 PWs)   bands (ev):

   -13.8933  -5.9762  -4.9756  -4.3636  -0.5574  -0.2025   0.3130   0.5207

          k = 0.2000 0.1155 0.0000 (  2617 PWs)   bands (ev):

   -13.5465  -6.6349  -5.4969  -4.7867  -0.9426  -0.0727   1.5511   1.6121

          k = 0.3000 0.1732 0.0000 (  2641 PWs)   bands (ev):

   -12.9855  -8.1089  -5.1893  -5.0018  -1.4463  -0.5274   1.4825   2.4865

          k = 0.4000 0.2309 0.0000 (  2641 PWs)   bands (ev):

   -12.2704  -9.4175  -5.4582  -4.3371  -1.8476  -1.4701   2.0914   3.3692

          k =-0.5000-0.2887 0.0000 (  2646 PWs)   bands (ev):

   -11.7782 -10.1122  -5.5514  -3.8962  -2.2381  -1.7903   2.7172   3.7925

          k = 0.2000 0.0000 0.0000 (  2631 PWs)   bands (ev):

   -13.6614  -6.2267  -5.5370  -4.8006  -0.1371  -0.0311   0.0813   1.6449

          k = 0.3000 0.0577 0.0000 (  2624 PWs)   bands (ev):

   -13.2057  -7.4889  -5.3877  -5.1904  -0.5691  -0.1642   1.2564   1.5621

          k = 0.4000 0.1155 0.0000 (  2639 PWs)   bands (ev):

   -12.5548  -8.8310  -5.8170  -4.5852  -1.2360  -0.7387   1.8249   2.7039

          k = 0.5000 0.1732 0.0000 (  2641 PWs)   bands (ev):

   -11.8459  -9.9114  -6.0394  -3.9257  -2.0773  -1.0245   2.3885   3.0040

          k =-0.4000-0.3464 0.0000 (  2641 PWs)   bands (ev):

   -11.8459  -9.9113  -6.0394  -3.9257  -2.0773  -1.0245   2.3884   3.0040

          k =-0.3000-0.2887 0.0000 (  2639 PWs)   bands (ev):

   -12.5549  -8.8309  -5.8171  -4.5853  -1.2360  -0.7386   1.8248   2.7041

          k =-0.2000-0.2309 0.0000 (  2624 PWs)   bands (ev):

   -13.2057  -7.4889  -5.3877  -5.1905  -0.5691  -0.1641   1.2568   1.5623

          k =-0.1000-0.1732 0.0000 (  2631 PWs)   bands (ev):

   -13.6614  -6.2267  -5.5370  -4.8007  -0.1371  -0.0306   0.0813   1.6963

          k = 0.0000-0.1155 0.0000 (  2619 PWs)   bands (ev):

   -13.8933  -5.9762  -4.9757  -4.3635  -0.5571  -0.2025   0.3126   0.5209

          k = 0.4000 0.0000 0.0000 (  2633 PWs)   bands (ev):

   -12.6535  -8.4970  -6.1936  -4.6725  -0.9262   0.7963   1.0501   1.8233

          k = 0.5000 0.0577 0.0000 (  2632 PWs)   bands (ev):

   -11.9382  -9.5495  -6.7244  -3.9941  -1.7825   0.6405   1.8372   2.5392

          k = 0.6000 0.1155 0.0000 (  2633 PWs)   bands (ev):

   -11.4051 -10.2102  -6.8984  -3.4978  -2.3602   0.5477   1.6448   3.3341

          k =-0.3000-0.4041 0.0000 (  2632 PWs)   bands (ev):

   -11.9383  -9.5494  -6.7245  -3.9942  -1.7825   0.6406   1.8371   2.5402

          k =-0.2000-0.3464 0.0000 (  2633 PWs)   bands (ev):

   -12.6535  -8.4970  -6.1936  -4.6726  -0.9262   0.7965   1.0506   1.8233

          k =-0.1000-0.2887 0.0000 (  2624 PWs)   bands (ev):

   -13.2057  -7.4889  -5.3876  -5.1905  -0.5689  -0.1641   1.2566   1.5621

          k = 0.0000-0.2309 0.0000 (  2617 PWs)   bands (ev):

   -13.5465  -6.6350  -5.4969  -4.7866  -0.9424  -0.0728   1.5510   1.6122

          k = 0.6000 0.0000 0.0000 (  2611 PWs)   bands (ev):

   -11.2016 -10.2973  -7.2872  -3.2992  -2.4610   1.2587   2.3034   2.6938

          k = 0.7000 0.0577 0.0000 (  2611 PWs)   bands (ev):

   -11.2017 -10.2972  -7.2872  -3.2994  -2.4609   1.2587   2.3036   2.6941

          k =-0.2000-0.4619 0.0000 (  2632 PWs)   bands (ev):

   -11.9384  -9.5494  -6.7244  -3.9942  -1.7825   0.6410   1.8372   2.5393

          k =-0.1000-0.4041 0.0000 (  2639 PWs)   bands (ev):

   -12.5549  -8.8310  -5.8169  -4.5853  -1.2360  -0.7384   1.8247   2.7047

          k =-0.0000-0.3464 0.0000 (  2641 PWs)   bands (ev):

   -12.9856  -8.1090  -5.1891  -5.0019  -1.4460  -0.5275   1.4824   3.0170

          k = 0.8000 0.0000 0.0000 (  2633 PWs)   bands (ev):

   -11.4053 -10.2101  -6.8983  -3.4980  -2.3601   0.5482   1.6449   3.3341

          k =-0.1000-0.5196 0.0000 (  2641 PWs)   bands (ev):

   -11.8461  -9.9113  -6.0392  -3.9258  -2.0773  -1.0242   2.3885   3.0041

          k = 0.0000-0.4619 0.0000 (  2641 PWs)   bands (ev):

   -12.2706  -9.4175  -5.4580  -4.3372  -1.8474  -1.4700   2.0914   3.3694

          k =-1.0000 0.0000 0.0000 (  2646 PWs)   bands (ev):

   -11.7784 -10.1122  -5.5512  -3.8964  -2.2381  -1.7900   2.7171   3.7925

     the Fermi energy is    -2.8802 ev

!    total energy              =     -93.35780694 Ry

     total all-electron energy =     -1160.049537 Ry
     estimated scf accuracy    <          5.4E-10 Ry
     smearing contrib. (-TS)   =      -0.00000005 Ry
     internal energy E=F+TS    =     -93.35780689 Ry

     The total energy is F=E-TS. E is the sum of the following terms:
     one-electron contribution =     -80.75298785 Ry
     hartree contribution      =      41.59750869 Ry
     xc contribution           =     -12.15082782 Ry
     ewald contribution        =      29.13615741 Ry
     one-center paw contrib.   =     -71.18765732 Ry

     convergence has been achieved in   8 iterations

     Writing all to output data dir ./silicene.save/

     init_run     :      8.73s CPU      6.83s WALL (       1 calls)
     electrons    :    113.83s CPU     76.62s WALL (       1 calls)

     Called by init_run:
     wfcinit      :      3.90s CPU      2.57s WALL (       1 calls)
     potinit      :      2.14s CPU      1.92s WALL (       1 calls)
     hinit0       :      2.08s CPU      1.89s WALL (       1 calls)

     Called by electrons:
     c_bands      :     87.47s CPU     59.35s WALL (       9 calls)
     sum_band     :     17.17s CPU     11.76s WALL (       9 calls)
     v_of_rho     :      1.27s CPU      0.82s WALL (       9 calls)
     newd         :      4.27s CPU      2.93s WALL (       9 calls)
     PAW_pot      :      5.00s CPU      2.93s WALL (       9 calls)
     mix_rho      :      0.11s CPU      0.06s WALL (       9 calls)

     Called by c_bands:
     init_us_2    :      1.61s CPU      1.10s WALL (     589 calls)
     init_us_2:cp :      1.60s CPU      1.10s WALL (     589 calls)
     cegterg      :     84.60s CPU     57.47s WALL (     279 calls)

     Called by *egterg:
     cdiaghg      :      0.40s CPU      0.24s WALL (    1401 calls)
     h_psi        :     66.28s CPU     43.80s WALL (    1463 calls)
     s_psi        :      2.85s CPU      2.13s WALL (    1463 calls)
     g_psi        :      2.18s CPU      1.65s WALL (    1153 calls)

     Called by h_psi:
     h_psi:calbec :      7.44s CPU      4.75s WALL (    1463 calls)
     vloc_psi     :     56.93s CPU     37.73s WALL (    1463 calls)
     add_vuspsi   :      0.89s CPU      0.56s WALL (    1463 calls)

     General routines
     calbec       :      9.16s CPU      5.88s WALL (    1742 calls)
     fft          :      1.69s CPU      1.43s WALL (     116 calls)
     ffts         :      0.90s CPU      0.79s WALL (      18 calls)
     fftw         :     59.81s CPU     39.65s WALL (   15322 calls)
     interpolate  :      0.88s CPU      0.78s WALL (       9 calls)

     Parallel routines

     PWSCF        :   2m 2.94s CPU   1m23.81s WALL


   This run was terminated on:  17: 9:28  12Jul2023            

=------------------------------------------------------------------------------=
   JOB DONE.
=------------------------------------------------------------------------------=
