### Running on host: qmobile

     Program PWSCF v.7.0 starts on 12Jul2023 at 18:18:52 

     This program is part of the open-source Quantum ESPRESSO suite
     for quantum simulation of materials; please cite
         "P. Giannozzi et al., J. Phys.:Condens. Matter 21 395502 (2009);
         "P. Giannozzi et al., J. Phys.:Condens. Matter 29 465901 (2017);
         "P. Giannozzi et al., J. Chem. Phys. 152 154105 (2020);
          URL http://www.quantum-espresso.org", 
     in publications or presentations arising from this work. More details at
     http://www.quantum-espresso.org/quote

     Parallel version (MPI & OpenMP), running on       2 processor cores
     Number of MPI processes:                 1
     Threads/MPI process:                     2

     MPI processes distributed on     1 nodes
     89781 MiB available memory on the printing compute node when the environment starts

     Reading input from silicene_scf_kpoints-8.in

     Current dimensions of program PWSCF are:
     Max number of different atomic species (ntypx) = 10
     Max number of k-points (npk) =  40000
     Max angular momentum in pseudopotentials (lmaxx) =  4
     file Si.pbe-n-kjpaw_psl.1.0.0.UPF: wavefunction(s)  3S 3P renormalized

     Subspace diagonalization in iterative solution of the eigenvalue problem:
     a serial algorithm will be used


     G-vector sticks info
     --------------------
     sticks:   dense  smooth     PW     G-vecs:    dense   smooth      PW
     Sum         745     745    235                83451    83451   14669

     Using Slab Decomposition



     bravais-lattice index     =           -9
     lattice parameter (alat)  =       7.2962  a.u.
     unit-cell volume          =    1742.4604 (a.u.)^3
     number of atoms/cell      =            2
     number of atomic types    =            1
     number of electrons       =         8.00
     number of Kohn-Sham states=            8
     kinetic-energy cutoff     =      50.0000  Ry
     charge density cutoff     =     200.0000  Ry
     scf convergence threshold =      1.0E-08
     mixing beta               =       0.7000
     number of iterations used =            8  plain     mixing
     Exchange-correlation= SLA  PW   PBX  PBC
                           (   1   4   3   4   0   0   0)

     celldm(1)=   7.296200  celldm(2)=   1.732100  celldm(3)=   5.180000
     celldm(4)=   0.000000  celldm(5)=   0.000000  celldm(6)=   0.000000

     crystal axes: (cart. coord. in units of alat)
               a(1) = (   0.500000  -0.866050   0.000000 )  
               a(2) = (   0.500000   0.866050   0.000000 )  
               a(3) = (   0.000000   0.000000   5.180000 )  

     reciprocal axes: (cart. coord. in units 2 pi/alat)
               b(1) = (  1.000000 -0.577334  0.000000 )  
               b(2) = (  1.000000  0.577334 -0.000000 )  
               b(3) = ( -0.000000  0.000000  0.193050 )  


     PseudoPot. # 1 for Si read from file:
     ../pseudos/Si.pbe-n-kjpaw_psl.1.0.0.UPF
     MD5 check sum: c39c59da582df4a0d9f10159256ea34e
     Pseudo is Projector augmented-wave + core cor, Zval =  4.0
     Generated using &quot;atomic&quot; code by A. Dal Corso  v.6.3
     Shape of augmentation charge: PSQ
     Using radial grid of 1141 points,  6 beta functions with: 
                l(1) =   0
                l(2) =   0
                l(3) =   1
                l(4) =   1
                l(5) =   2
                l(6) =   2
     Q(r) pseudized with 0 coefficients 


     atomic species   valence    mass     pseudopotential
        Si             4.00    28.08550     Si( 1.00)

      2 Sym. Ops. (no inversion) found



   Cartesian axes

     site n.     atom                  positions (alat units)
         1           Si  tau(   1) = (   0.5000000  -0.2886833   2.0476077  )
         2           Si  tau(   2) = (   0.5000000   0.2886833   2.1611423  )

     number of k points=    21  Gaussian smearing, width (Ry)=  0.0100
                       cart. coord. in units 2pi/alat
        k(    1) = (   0.0000000   0.0000000   0.0000000), wk =   0.0312500
        k(    2) = (   0.1250000   0.0721667   0.0000000), wk =   0.1250000
        k(    3) = (   0.2500000   0.1443335   0.0000000), wk =   0.1250000
        k(    4) = (   0.3750000   0.2165002   0.0000000), wk =   0.1250000
        k(    5) = (  -0.5000000  -0.2886669   0.0000000), wk =   0.0625000
        k(    6) = (   0.2500000   0.0000000   0.0000000), wk =   0.0625000
        k(    7) = (   0.3750000   0.0721667   0.0000000), wk =   0.1250000
        k(    8) = (   0.5000000   0.1443335   0.0000000), wk =   0.1250000
        k(    9) = (  -0.3750000  -0.3608337   0.0000000), wk =   0.1250000
        k(   10) = (  -0.2500000  -0.2886669   0.0000000), wk =   0.1250000
        k(   11) = (  -0.1250000  -0.2165002   0.0000000), wk =   0.1250000
        k(   12) = (   0.0000000  -0.1443335   0.0000000), wk =   0.0625000
        k(   13) = (   0.5000000   0.0000000   0.0000000), wk =   0.0625000
        k(   14) = (   0.6250000   0.0721667   0.0000000), wk =   0.1250000
        k(   15) = (  -0.2500000  -0.4330004   0.0000000), wk =   0.1250000
        k(   16) = (  -0.1250000  -0.3608337   0.0000000), wk =   0.1250000
        k(   17) = (   0.0000000  -0.2886669   0.0000000), wk =   0.0625000
        k(   18) = (   0.7500000   0.0000000   0.0000000), wk =   0.0625000
        k(   19) = (  -0.1250000  -0.5051671   0.0000000), wk =   0.1250000
        k(   20) = (   0.0000000  -0.4330004   0.0000000), wk =   0.0625000
        k(   21) = (  -1.0000000   0.0000000   0.0000000), wk =   0.0312500

     Dense  grid:    83451 G-vectors     FFT dimensions: (  36,  36, 180)

     Estimated max dynamical RAM per process >     324.90 MB

     Initial potential from superposition of free atoms

     starting charge       7.9989, renormalised to       8.0000

     negative rho (up, down):  1.161E-04 0.000E+00
     Starting wfcs are    8 randomized atomic wfcs
     Checking if some PAW data can be deallocated... 

     total cpu time spent up to now is        7.2 secs

     per-process dynamical memory:    83.2 Mb

     Self-consistent Calculation

     iteration #  1     ecut=    50.00 Ry     beta= 0.70
     Davidson diagonalization with overlap
     ethr =  1.00E-02,  avg # of iterations =  4.8

     Threshold (ethr) on eigenvalues was too large:
     Diagonalizing with lowered threshold

     Davidson diagonalization with overlap
     ethr =  7.49E-04,  avg # of iterations =  1.5

     negative rho (up, down):  1.108E-04 0.000E+00

     total cpu time spent up to now is       30.3 secs

     total energy              =     -93.35234875 Ry
     estimated scf accuracy    <       0.06589941 Ry

     iteration #  2     ecut=    50.00 Ry     beta= 0.70
     Davidson diagonalization with overlap
     ethr =  8.24E-04,  avg # of iterations =  3.3

     negative rho (up, down):  1.128E-04 0.000E+00

     total cpu time spent up to now is       41.4 secs

     total energy              =     -93.35904426 Ry
     estimated scf accuracy    <       0.00192049 Ry

     iteration #  3     ecut=    50.00 Ry     beta= 0.70
     Davidson diagonalization with overlap
     c_bands:  1 eigenvalues not converged
     ethr =  2.40E-05,  avg # of iterations =  7.7

     negative rho (up, down):  1.133E-04 0.000E+00

     total cpu time spent up to now is       56.8 secs

     total energy              =     -93.35924232 Ry
     estimated scf accuracy    <       0.00015583 Ry

     iteration #  4     ecut=    50.00 Ry     beta= 0.70
     Davidson diagonalization with overlap
     c_bands:  1 eigenvalues not converged
     ethr =  1.95E-06,  avg # of iterations =  6.6

     negative rho (up, down):  1.132E-04 0.000E+00

     total cpu time spent up to now is       70.9 secs

     total energy              =     -93.35922808 Ry
     estimated scf accuracy    <       0.00036540 Ry

     iteration #  5     ecut=    50.00 Ry     beta= 0.70
     Davidson diagonalization with overlap
     ethr =  1.95E-06,  avg # of iterations =  3.1

     negative rho (up, down):  1.129E-04 0.000E+00

     total cpu time spent up to now is       81.9 secs

     total energy              =     -93.35928398 Ry
     estimated scf accuracy    <       0.00000087 Ry

     iteration #  6     ecut=    50.00 Ry     beta= 0.70
     Davidson diagonalization with overlap
     ethr =  1.09E-08,  avg # of iterations =  3.4

     negative rho (up, down):  1.127E-04 0.000E+00

     total cpu time spent up to now is       94.1 secs

     total energy              =     -93.35928450 Ry
     estimated scf accuracy    <       0.00000018 Ry

     iteration #  7     ecut=    50.00 Ry     beta= 0.70
     Davidson diagonalization with overlap
     ethr =  2.29E-09,  avg # of iterations =  1.3

     negative rho (up, down):  1.127E-04 0.000E+00

     total cpu time spent up to now is      102.6 secs

     total energy              =     -93.35928452 Ry
     estimated scf accuracy    <       0.00000002 Ry

     iteration #  8     ecut=    50.00 Ry     beta= 0.70
     Davidson diagonalization with overlap
     ethr =  2.13E-10,  avg # of iterations =  2.1

     negative rho (up, down):  1.127E-04 0.000E+00

     total cpu time spent up to now is      112.6 secs

     End of self-consistent calculation

          k = 0.0000 0.0000 0.0000 ( 10447 PWs)   bands (ev):

   -14.0099  -6.0514  -4.1647  -4.1646  -0.9849  -0.2791   0.0842   0.0845

          k = 0.1250 0.0722 0.0000 ( 10398 PWs)   bands (ev):

   -13.8275  -5.9639  -5.2845  -4.4623  -0.6002  -0.1587   0.6090   0.7343

          k = 0.2500 0.1443 0.0000 ( 10388 PWs)   bands (ev):

   -13.2904  -7.3759  -5.2821  -5.0003  -1.2108  -0.1805   1.4536   2.2889

          k = 0.3750 0.2165 0.0000 ( 10416 PWs)   bands (ev):

   -12.4547  -9.1188  -5.4057  -4.5076  -1.7541  -1.2576   1.9070   3.2138

          k =-0.5000-0.2887 0.0000 ( 10434 PWs)   bands (ev):

   -11.7776 -10.1110  -5.5502  -3.8963  -2.2402  -1.7974   2.7140   3.7740

          k = 0.2500 0.0000 0.0000 ( 10386 PWs)   bands (ev):

   -13.4671  -6.7836  -5.4234  -5.1200  -0.1633   0.1806   0.1907   1.6812

          k = 0.3750 0.0722 0.0000 ( 10407 PWs)   bands (ev):

   -12.7704  -8.3808  -5.8524  -4.7860  -0.8797  -0.3009   1.6712   2.0002

          k = 0.5000 0.1443 0.0000 ( 10415 PWs)   bands (ev):

   -11.8726  -9.8166  -6.2335  -3.9441  -2.0012  -0.6692   2.2391   2.8345

          k =-0.3750-0.3608 0.0000 ( 10415 PWs)   bands (ev):

   -11.8726  -9.8165  -6.2336  -3.9441  -2.0012  -0.6692   2.2391   2.8345

          k =-0.2500-0.2887 0.0000 ( 10407 PWs)   bands (ev):

   -12.7705  -8.3808  -5.8525  -4.7861  -0.8796  -0.3008   1.6712   2.0007

          k =-0.1250-0.2165 0.0000 ( 10386 PWs)   bands (ev):

   -13.4671  -6.7836  -5.4234  -5.1201  -0.1633   0.1807   0.1912   1.6822

          k = 0.0000-0.1443 0.0000 ( 10398 PWs)   bands (ev):

   -13.8275  -5.9639  -5.2846  -4.4621  -0.5999  -0.1587   0.6086   0.7344

          k = 0.5000 0.0000 0.0000 ( 10410 PWs)   bands (ev):

   -11.9518  -9.4782  -6.8390  -4.0062  -1.7299   1.4483   1.6223   1.9594

          k = 0.6250 0.0722 0.0000 ( 10408 PWs)   bands (ev):

   -11.1954 -10.3408  -7.1962  -3.2983  -2.4944   1.3358   1.4670   3.4281

          k =-0.2500-0.4330 0.0000 ( 10410 PWs)   bands (ev):

   -11.9519  -9.4781  -6.8390  -4.0062  -1.7298   1.4486   1.6225   1.9596

          k =-0.1250-0.3608 0.0000 ( 10407 PWs)   bands (ev):

   -12.7705  -8.3808  -5.8523  -4.7861  -0.8796  -0.3006   1.6711   2.0004

          k = 0.0000-0.2887 0.0000 ( 10384 PWs)   bands (ev):

   -13.2905  -7.3760  -5.2821  -5.0001  -1.2105  -0.1806   1.4535   2.2890

          k = 0.7500 0.0000 0.0000 ( 10408 PWs)   bands (ev):

   -11.1956 -10.3407  -7.1962  -3.2985  -2.4943   1.3359   1.4675   3.4290

          k =-0.1250-0.5052 0.0000 ( 10415 PWs)   bands (ev):

   -11.8728  -9.8165  -6.2334  -3.9442  -2.0012  -0.6688   2.2392   2.8345

          k = 0.0000-0.4330 0.0000 ( 10416 PWs)   bands (ev):

   -12.4548  -9.1188  -5.4054  -4.5077  -1.7539  -1.2576   1.9069   3.2139

          k =-1.0000 0.0000 0.0000 ( 10434 PWs)   bands (ev):

   -11.7778 -10.1109  -5.5500  -3.8964  -2.2402  -1.7971   2.7139   3.7743

     the Fermi energy is    -2.8964 ev

!    total energy              =     -93.35928452 Ry

     total all-electron energy =     -1160.051014 Ry
     estimated scf accuracy    <          1.4E-09 Ry
     smearing contrib. (-TS)   =      -0.00000017 Ry
     internal energy E=F+TS    =     -93.35928435 Ry

     The total energy is F=E-TS. E is the sum of the following terms:
     one-electron contribution =     -80.75548254 Ry
     hartree contribution      =      41.59995139 Ry
     xc contribution           =     -12.15101482 Ry
     ewald contribution        =      29.13615741 Ry
     one-center paw contrib.   =     -71.18889579 Ry

     convergence has been achieved in   8 iterations

     Writing all to output data dir ./silicene.save/

     init_run     :     10.21s CPU      6.88s WALL (       1 calls)
     electrons    :    169.54s CPU    105.47s WALL (       1 calls)

     Called by init_run:
     wfcinit      :      5.96s CPU      3.60s WALL (       1 calls)
     potinit      :      1.03s CPU      0.55s WALL (       1 calls)
     hinit0       :      2.43s CPU      2.13s WALL (       1 calls)

     Called by electrons:
     c_bands      :    132.11s CPU     82.17s WALL (       9 calls)
     sum_band     :     26.86s CPU     17.07s WALL (       9 calls)
     v_of_rho     :      1.68s CPU      0.97s WALL (       9 calls)
     newd         :      5.67s CPU      3.71s WALL (       9 calls)
     PAW_pot      :      4.28s CPU      2.22s WALL (       9 calls)
     mix_rho      :      0.25s CPU      0.16s WALL (       9 calls)

     Called by c_bands:
     init_us_2    :      2.26s CPU      1.42s WALL (     399 calls)
     init_us_2:cp :      2.26s CPU      1.42s WALL (     399 calls)
     cegterg      :    126.14s CPU     78.63s WALL (     189 calls)

     Called by *egterg:
     cdiaghg      :      0.28s CPU      0.15s WALL (     879 calls)
     h_psi        :    104.95s CPU     63.98s WALL (     921 calls)
     s_psi        :      3.66s CPU      2.41s WALL (     921 calls)
     g_psi        :      2.56s CPU      1.75s WALL (     711 calls)

     Called by h_psi:
     h_psi:calbec :      7.37s CPU      4.28s WALL (     921 calls)
     vloc_psi     :     94.32s CPU     57.69s WALL (     921 calls)
     add_vuspsi   :      1.90s CPU      1.04s WALL (     921 calls)

     General routines
     calbec       :      9.14s CPU      5.34s WALL (    1110 calls)
     fft          :      1.94s CPU      1.57s WALL (     100 calls)
     ffts         :      0.04s CPU      0.03s WALL (       9 calls)
     fftw         :    100.44s CPU     61.17s WALL (   10262 calls)

     Parallel routines

     PWSCF        :   3m 0.28s CPU   1m52.96s WALL


   This run was terminated on:  18:20:45  12Jul2023            

=------------------------------------------------------------------------------=
   JOB DONE.
=------------------------------------------------------------------------------=
