### Running on host: qmobile

     Program PWSCF v.7.0 starts on 12Jul2023 at 18:23:29 

     This program is part of the open-source Quantum ESPRESSO suite
     for quantum simulation of materials; please cite
         "P. Giannozzi et al., J. Phys.:Condens. Matter 21 395502 (2009);
         "P. Giannozzi et al., J. Phys.:Condens. Matter 29 465901 (2017);
         "P. Giannozzi et al., J. Chem. Phys. 152 154105 (2020);
          URL http://www.quantum-espresso.org", 
     in publications or presentations arising from this work. More details at
     http://www.quantum-espresso.org/quote

     Parallel version (MPI & OpenMP), running on       2 processor cores
     Number of MPI processes:                 1
     Threads/MPI process:                     2

     MPI processes distributed on     1 nodes
     89800 MiB available memory on the printing compute node when the environment starts

     Reading input from silicene_scf_kpoints-12.in

     Current dimensions of program PWSCF are:
     Max number of different atomic species (ntypx) = 10
     Max number of k-points (npk) =  40000
     Max angular momentum in pseudopotentials (lmaxx) =  4
     file Si.pbe-n-kjpaw_psl.1.0.0.UPF: wavefunction(s)  3S 3P renormalized

     Subspace diagonalization in iterative solution of the eigenvalue problem:
     a serial algorithm will be used


     G-vector sticks info
     --------------------
     sticks:   dense  smooth     PW     G-vecs:    dense   smooth      PW
     Sum         745     745    235                83451    83451   14669

     Using Slab Decomposition



     bravais-lattice index     =           -9
     lattice parameter (alat)  =       7.2962  a.u.
     unit-cell volume          =    1742.4604 (a.u.)^3
     number of atoms/cell      =            2
     number of atomic types    =            1
     number of electrons       =         8.00
     number of Kohn-Sham states=            8
     kinetic-energy cutoff     =      50.0000  Ry
     charge density cutoff     =     200.0000  Ry
     scf convergence threshold =      1.0E-08
     mixing beta               =       0.7000
     number of iterations used =            8  plain     mixing
     Exchange-correlation= SLA  PW   PBX  PBC
                           (   1   4   3   4   0   0   0)

     celldm(1)=   7.296200  celldm(2)=   1.732100  celldm(3)=   5.180000
     celldm(4)=   0.000000  celldm(5)=   0.000000  celldm(6)=   0.000000

     crystal axes: (cart. coord. in units of alat)
               a(1) = (   0.500000  -0.866050   0.000000 )  
               a(2) = (   0.500000   0.866050   0.000000 )  
               a(3) = (   0.000000   0.000000   5.180000 )  

     reciprocal axes: (cart. coord. in units 2 pi/alat)
               b(1) = (  1.000000 -0.577334  0.000000 )  
               b(2) = (  1.000000  0.577334 -0.000000 )  
               b(3) = ( -0.000000  0.000000  0.193050 )  


     PseudoPot. # 1 for Si read from file:
     ../pseudos/Si.pbe-n-kjpaw_psl.1.0.0.UPF
     MD5 check sum: c39c59da582df4a0d9f10159256ea34e
     Pseudo is Projector augmented-wave + core cor, Zval =  4.0
     Generated using &quot;atomic&quot; code by A. Dal Corso  v.6.3
     Shape of augmentation charge: PSQ
     Using radial grid of 1141 points,  6 beta functions with: 
                l(1) =   0
                l(2) =   0
                l(3) =   1
                l(4) =   1
                l(5) =   2
                l(6) =   2
     Q(r) pseudized with 0 coefficients 


     atomic species   valence    mass     pseudopotential
        Si             4.00    28.08550     Si( 1.00)

      2 Sym. Ops. (no inversion) found



   Cartesian axes

     site n.     atom                  positions (alat units)
         1           Si  tau(   1) = (   0.5000000  -0.2886833   2.0476077  )
         2           Si  tau(   2) = (   0.5000000   0.2886833   2.1611423  )

     number of k points=    43  Gaussian smearing, width (Ry)=  0.0100
                       cart. coord. in units 2pi/alat
        k(    1) = (   0.0000000   0.0000000   0.0000000), wk =   0.0138889
        k(    2) = (   0.0833333   0.0481112   0.0000000), wk =   0.0555556
        k(    3) = (   0.1666667   0.0962223   0.0000000), wk =   0.0555556
        k(    4) = (   0.2500000   0.1443335   0.0000000), wk =   0.0555556
        k(    5) = (   0.3333333   0.1924446   0.0000000), wk =   0.0555556
        k(    6) = (   0.4166667   0.2405558   0.0000000), wk =   0.0555556
        k(    7) = (  -0.5000000  -0.2886669   0.0000000), wk =   0.0277778
        k(    8) = (   0.1666667   0.0000000   0.0000000), wk =   0.0277778
        k(    9) = (   0.2500000   0.0481112   0.0000000), wk =   0.0555556
        k(   10) = (   0.3333333   0.0962223   0.0000000), wk =   0.0555556
        k(   11) = (   0.4166667   0.1443335   0.0000000), wk =   0.0555556
        k(   12) = (   0.5000000   0.1924446   0.0000000), wk =   0.0555556
        k(   13) = (  -0.4166667  -0.3367781   0.0000000), wk =   0.0555556
        k(   14) = (  -0.3333333  -0.2886669   0.0000000), wk =   0.0555556
        k(   15) = (  -0.2500000  -0.2405558   0.0000000), wk =   0.0555556
        k(   16) = (  -0.1666667  -0.1924446   0.0000000), wk =   0.0555556
        k(   17) = (  -0.0833333  -0.1443335   0.0000000), wk =   0.0555556
        k(   18) = (  -0.0000000  -0.0962223   0.0000000), wk =   0.0277778
        k(   19) = (   0.3333333   0.0000000   0.0000000), wk =   0.0277778
        k(   20) = (   0.4166667   0.0481112   0.0000000), wk =   0.0555556
        k(   21) = (   0.5000000   0.0962223   0.0000000), wk =   0.0555556
        k(   22) = (   0.5833333   0.1443335   0.0000000), wk =   0.0555556
        k(   23) = (  -0.3333333  -0.3848892   0.0000000), wk =   0.0555556
        k(   24) = (  -0.2500000  -0.3367781   0.0000000), wk =   0.0555556
        k(   25) = (  -0.1666667  -0.2886669   0.0000000), wk =   0.0555556
        k(   26) = (  -0.0833333  -0.2405558   0.0000000), wk =   0.0555556
        k(   27) = (   0.0000000  -0.1924446   0.0000000), wk =   0.0277778
        k(   28) = (   0.5000000   0.0000000   0.0000000), wk =   0.0277778
        k(   29) = (   0.5833333   0.0481112   0.0000000), wk =   0.0555556
        k(   30) = (   0.6666667   0.0962223   0.0000000), wk =   0.0555556
        k(   31) = (  -0.2500000  -0.4330004   0.0000000), wk =   0.0555556
        k(   32) = (  -0.1666667  -0.3848892   0.0000000), wk =   0.0555556
        k(   33) = (  -0.0833333  -0.3367781   0.0000000), wk =   0.0555556
        k(   34) = (   0.0000000  -0.2886669   0.0000000), wk =   0.0277778
        k(   35) = (   0.6666667   0.0000000   0.0000000), wk =   0.0277778
        k(   36) = (   0.7500000   0.0481112   0.0000000), wk =   0.0555556
        k(   37) = (  -0.1666667  -0.4811116   0.0000000), wk =   0.0555556
        k(   38) = (  -0.0833333  -0.4330004   0.0000000), wk =   0.0555556
        k(   39) = (  -0.0000000  -0.3848892   0.0000000), wk =   0.0277778
        k(   40) = (   0.8333333   0.0000000   0.0000000), wk =   0.0277778
        k(   41) = (  -0.0833333  -0.5292227   0.0000000), wk =   0.0555556
        k(   42) = (   0.0000000  -0.4811116   0.0000000), wk =   0.0277778
        k(   43) = (  -1.0000000   0.0000000   0.0000000), wk =   0.0138889

     Dense  grid:    83451 G-vectors     FFT dimensions: (  36,  36, 180)

     Estimated max dynamical RAM per process >     352.84 MB

     Initial potential from superposition of free atoms

     starting charge       7.9989, renormalised to       8.0000

     negative rho (up, down):  1.161E-04 0.000E+00
     Starting wfcs are    8 randomized atomic wfcs
     Checking if some PAW data can be deallocated... 

     total cpu time spent up to now is        9.9 secs

     per-process dynamical memory:   112.7 Mb

     Self-consistent Calculation

     iteration #  1     ecut=    50.00 Ry     beta= 0.70
     Davidson diagonalization with overlap
     ethr =  1.00E-02,  avg # of iterations =  4.7

     Threshold (ethr) on eigenvalues was too large:
     Diagonalizing with lowered threshold

     Davidson diagonalization with overlap
     ethr =  7.47E-04,  avg # of iterations =  1.6

     negative rho (up, down):  1.107E-04 0.000E+00

     total cpu time spent up to now is       58.5 secs

     total energy              =     -93.35245087 Ry
     estimated scf accuracy    <       0.06575449 Ry

     iteration #  2     ecut=    50.00 Ry     beta= 0.70
     Davidson diagonalization with overlap
     ethr =  8.22E-04,  avg # of iterations =  2.9

     negative rho (up, down):  1.126E-04 0.000E+00

     total cpu time spent up to now is       79.3 secs

     total energy              =     -93.35912148 Ry
     estimated scf accuracy    <       0.00191686 Ry

     iteration #  3     ecut=    50.00 Ry     beta= 0.70
     Davidson diagonalization with overlap
     ethr =  2.40E-05,  avg # of iterations =  8.1

     negative rho (up, down):  1.134E-04 0.000E+00

     total cpu time spent up to now is      113.5 secs

     total energy              =     -93.35932033 Ry
     estimated scf accuracy    <       0.00014015 Ry

     iteration #  4     ecut=    50.00 Ry     beta= 0.70
     Davidson diagonalization with overlap
     c_bands:  1 eigenvalues not converged
     c_bands:  1 eigenvalues not converged
     ethr =  1.75E-06,  avg # of iterations =  5.9

     negative rho (up, down):  1.133E-04 0.000E+00

     total cpu time spent up to now is      143.4 secs

     total energy              =     -93.35931355 Ry
     estimated scf accuracy    <       0.00024351 Ry

     iteration #  5     ecut=    50.00 Ry     beta= 0.70
     Davidson diagonalization with overlap
     ethr =  1.75E-06,  avg # of iterations =  2.6

     negative rho (up, down):  1.129E-04 0.000E+00

     total cpu time spent up to now is      162.3 secs

     total energy              =     -93.35935160 Ry
     estimated scf accuracy    <       0.00000103 Ry

     iteration #  6     ecut=    50.00 Ry     beta= 0.70
     Davidson diagonalization with overlap
     ethr =  1.29E-08,  avg # of iterations =  2.7

     negative rho (up, down):  1.128E-04 0.000E+00

     total cpu time spent up to now is      184.6 secs

     total energy              =     -93.35935214 Ry
     estimated scf accuracy    <       0.00000012 Ry

     iteration #  7     ecut=    50.00 Ry     beta= 0.70
     Davidson diagonalization with overlap
     ethr =  1.47E-09,  avg # of iterations =  2.0

     negative rho (up, down):  1.127E-04 0.000E+00

     total cpu time spent up to now is      204.0 secs

     total energy              =     -93.35935216 Ry
     estimated scf accuracy    <       0.00000001 Ry

     iteration #  8     ecut=    50.00 Ry     beta= 0.70
     Davidson diagonalization with overlap
     ethr =  1.58E-10,  avg # of iterations =  2.1

     negative rho (up, down):  1.127E-04 0.000E+00

     total cpu time spent up to now is      223.7 secs

     End of self-consistent calculation

          k = 0.0000 0.0000 0.0000 ( 10447 PWs)   bands (ev):

   -14.0111  -6.0524  -4.1662  -4.1661  -0.9860  -0.2796   0.0832   0.0835

          k = 0.0833 0.0481 0.0000 ( 10389 PWs)   bands (ev):

   -13.9299  -5.9953  -4.7717  -4.3104  -0.5929  -0.2234   0.1706   0.3847

          k = 0.1667 0.0962 0.0000 ( 10390 PWs)   bands (ev):

   -13.6879  -6.1942  -5.5555  -4.6416  -0.7763  -0.0950   1.1819   1.2363

          k = 0.2500 0.1443 0.0000 ( 10388 PWs)   bands (ev):

   -13.2917  -7.3773  -5.2830  -5.0016  -1.2119  -0.1813   1.4532   2.2878

          k = 0.3333 0.1924 0.0000 ( 10420 PWs)   bands (ev):

   -12.7589  -8.5759  -5.2975  -4.7904  -1.5948  -0.8488   1.6387   2.8421

          k = 0.4167 0.2406 0.0000 ( 10436 PWs)   bands (ev):

   -12.1510  -9.5995  -5.4868  -4.2282  -1.9269  -1.5925   2.2263   3.7751

          k =-0.5000-0.2887 0.0000 ( 10434 PWs)   bands (ev):

   -11.7789 -10.1123  -5.5515  -3.8972  -2.2411  -1.7985   2.7135   3.7731

          k = 0.1667 0.0000 0.0000 ( 10395 PWs)   bands (ev):

   -13.7682  -5.9996  -5.4463  -4.6175  -0.1808  -0.1535   0.0341   1.3621

          k = 0.2500 0.0481 0.0000 ( 10384 PWs)   bands (ev):

   -13.4487  -6.8698  -5.4136  -5.0713  -0.5172  -0.0673   0.8700   1.6512

          k = 0.3333 0.0962 0.0000 ( 10409 PWs)   bands (ev):

   -12.9816  -8.0361  -5.4817  -4.9865  -0.9534  -0.4459   1.5195   2.1585

          k = 0.4167 0.1443 0.0000 ( 10412 PWs)   bands (ev):

   -12.3973  -9.1332  -5.7668  -4.4405  -1.4849  -1.0215   1.9652   2.9434

          k = 0.5000 0.1924 0.0000 ( 10424 PWs)   bands (ev):

   -11.8289  -9.9680  -5.9135  -3.9164  -2.1273  -1.2473   2.4694   3.1369

          k =-0.4167-0.3368 0.0000 ( 10424 PWs)   bands (ev):

   -11.8289  -9.9680  -5.9135  -3.9164  -2.1273  -1.2473   2.4694   3.1369

          k =-0.3333-0.2887 0.0000 ( 10412 PWs)   bands (ev):

   -12.3973  -9.1332  -5.7668  -4.4406  -1.4849  -1.0214   1.9651   2.9436

          k =-0.2500-0.2406 0.0000 ( 10407 PWs)   bands (ev):

   -12.9816  -8.0360  -5.4817  -4.9866  -0.9534  -0.4458   1.5195   2.1589

          k =-0.1667-0.1924 0.0000 ( 10384 PWs)   bands (ev):

   -13.4487  -6.8698  -5.4136  -5.0713  -0.5171  -0.0673   0.8704   1.6511

          k =-0.0833-0.1443 0.0000 ( 10395 PWs)   bands (ev):

   -13.7683  -5.9996  -5.4463  -4.6174  -0.1803  -0.1535   0.0340   1.3623

          k =-0.0000-0.0962 0.0000 ( 10389 PWs)   bands (ev):

   -13.9299  -5.9953  -4.7718  -4.3103  -0.5926  -0.2234   0.1702   0.3849

          k = 0.3333 0.0000 0.0000 ( 10400 PWs)   bands (ev):

   -13.0567  -7.7631  -5.7131  -5.0540  -0.4594   0.4531   0.6277   1.5810

          k = 0.4167 0.0481 0.0000 ( 10395 PWs)   bands (ev):

   -12.5278  -8.7380  -6.2295  -4.5541  -1.1125   0.2274   1.8167   1.9195

          k = 0.5000 0.0962 0.0000 ( 10403 PWs)   bands (ev):

   -11.9151  -9.6574  -6.5385  -3.9760  -1.8705   0.0213   1.9902   2.6431

          k = 0.5833 0.1443 0.0000 ( 10412 PWs)   bands (ev):

   -11.5196 -10.1614  -6.6400  -3.6103  -2.3089  -0.0508   1.8943   3.2669

          k =-0.3333-0.3849 0.0000 ( 10403 PWs)   bands (ev):

   -11.9151  -9.6573  -6.5385  -3.9761  -1.8705   0.0213   1.9902   2.6431

          k =-0.2500-0.3368 0.0000 ( 10395 PWs)   bands (ev):

   -12.5279  -8.7379  -6.2296  -4.5541  -1.1125   0.2275   1.8172   1.9196

          k =-0.1667-0.2887 0.0000 ( 10400 PWs)   bands (ev):

   -13.0567  -7.7631  -5.7132  -5.0540  -0.4594   0.4533   0.6282   1.5810

          k =-0.0833-0.2406 0.0000 ( 10384 PWs)   bands (ev):

   -13.4487  -6.8698  -5.4136  -5.0712  -0.5169  -0.0673   0.8702   1.6510

          k = 0.0000-0.1924 0.0000 ( 10390 PWs)   bands (ev):

   -13.6879  -6.1943  -5.5555  -4.6414  -0.7760  -0.0950   1.1820   1.2361

          k = 0.5000 0.0000 0.0000 ( 10410 PWs)   bands (ev):

   -11.9531  -9.4795  -6.8402  -4.0071  -1.7309   1.4470   1.6213   1.9584

          k = 0.5833 0.0481 0.0000 ( 10401 PWs)   bands (ev):

   -11.3462 -10.1801  -7.1578  -3.4371  -2.3506   1.3709   1.4878   3.1668

          k = 0.6667 0.0962 0.0000 ( 10401 PWs)   bands (ev):

   -11.3463 -10.1800  -7.1578  -3.4372  -2.3505   1.3709   1.4878   3.1676

          k =-0.2500-0.4330 0.0000 ( 10410 PWs)   bands (ev):

   -11.9532  -9.4794  -6.8402  -4.0072  -1.7308   1.4472   1.6215   1.9587

          k =-0.1667-0.3849 0.0000 ( 10395 PWs)   bands (ev):

   -12.5279  -8.7379  -6.2295  -4.5541  -1.1125   0.2278   1.8169   1.9195

          k =-0.0833-0.3368 0.0000 ( 10407 PWs)   bands (ev):

   -12.9817  -8.0361  -5.4816  -4.9866  -0.9531  -0.4458   1.5194   2.1587

          k = 0.0000-0.2887 0.0000 ( 10384 PWs)   bands (ev):

   -13.2918  -7.3774  -5.2830  -5.0014  -1.2116  -0.1814   1.4531   2.2879

          k = 0.6667 0.0000 0.0000 ( 10374 PWs)   bands (ev):

   -10.7473 -10.7470  -7.3907  -2.8776  -2.8774   1.1402   3.2191   3.2195

          k = 0.7500 0.0481 0.0000 ( 10403 PWs)   bands (ev):

   -11.3464 -10.1799  -7.1578  -3.4373  -2.3505   1.3710   1.4882   3.1668

          k =-0.1667-0.4811 0.0000 ( 10403 PWs)   bands (ev):

   -11.9152  -9.6573  -6.5384  -3.9761  -1.8705   0.0217   1.9902   2.6430

          k =-0.0833-0.4330 0.0000 ( 10412 PWs)   bands (ev):

   -12.3974  -9.1332  -5.7666  -4.4406  -1.4848  -1.0212   1.9651   2.9435

          k =-0.0000-0.3849 0.0000 ( 10420 PWs)   bands (ev):

   -12.7590  -8.5759  -5.2973  -4.7905  -1.5946  -0.8489   1.6386   2.8425

          k = 0.8333 0.0000 0.0000 ( 10412 PWs)   bands (ev):

   -11.5198 -10.1613  -6.6399  -3.6104  -2.3089  -0.0504   1.8944   3.2668

          k =-0.0833-0.5292 0.0000 ( 10424 PWs)   bands (ev):

   -11.8291  -9.9679  -5.9133  -3.9165  -2.1273  -1.2469   2.4694   3.1370

          k = 0.0000-0.4811 0.0000 ( 10436 PWs)   bands (ev):

   -12.1511  -9.5995  -5.4866  -4.2283  -1.9268  -1.5923   2.2262   3.7754

          k =-1.0000 0.0000 0.0000 ( 10434 PWs)   bands (ev):

   -11.7791 -10.1122  -5.5513  -3.8974  -2.2411  -1.7982   2.7134   3.7733

     the Fermi energy is    -2.8775 ev

!    total energy              =     -93.35935217 Ry

     total all-electron energy =     -1160.051082 Ry
     estimated scf accuracy    <          3.6E-10 Ry
     smearing contrib. (-TS)   =      -0.00015672 Ry
     internal energy E=F+TS    =     -93.35919545 Ry

     The total energy is F=E-TS. E is the sum of the following terms:
     one-electron contribution =     -80.75481061 Ry
     hartree contribution      =      41.59907551 Ry
     xc contribution           =     -12.15073640 Ry
     ewald contribution        =      29.13615741 Ry
     one-center paw contrib.   =     -71.18888137 Ry

     convergence has been achieved in   8 iterations

     Writing all to output data dir ./silicene.save/

     init_run     :     14.69s CPU      9.64s WALL (       1 calls)
     electrons    :    340.33s CPU    213.86s WALL (       1 calls)

     Called by init_run:
     wfcinit      :     10.42s CPU      6.39s WALL (       1 calls)
     potinit      :      1.05s CPU      0.58s WALL (       1 calls)
     hinit0       :      2.32s CPU      1.99s WALL (       1 calls)

     Called by electrons:
     c_bands      :    276.80s CPU    173.71s WALL (       9 calls)
     sum_band     :     52.85s CPU     33.91s WALL (       9 calls)
     v_of_rho     :      1.72s CPU      0.93s WALL (       9 calls)
     newd         :      5.53s CPU      3.59s WALL (       9 calls)
     PAW_pot      :      4.52s CPU      2.36s WALL (       9 calls)
     mix_rho      :      0.27s CPU      0.16s WALL (       9 calls)

     Called by c_bands:
     init_us_2    :      4.75s CPU      3.08s WALL (     817 calls)
     init_us_2:cp :      4.75s CPU      3.07s WALL (     817 calls)
     cegterg      :    264.61s CPU    166.53s WALL (     387 calls)

     Called by *egterg:
     cdiaghg      :      0.50s CPU      0.29s WALL (    1743 calls)
     h_psi        :    217.80s CPU    134.27s WALL (    1829 calls)
     s_psi        :      7.66s CPU      5.02s WALL (    1829 calls)
     g_psi        :      5.32s CPU      3.84s WALL (    1399 calls)

     Called by h_psi:
     h_psi:calbec :     15.14s CPU      8.92s WALL (    1829 calls)
     vloc_psi     :    195.58s CPU    120.91s WALL (    1829 calls)
     add_vuspsi   :      3.86s CPU      2.18s WALL (    1829 calls)

     General routines
     calbec       :     18.77s CPU     11.08s WALL (    2216 calls)
     fft          :      1.83s CPU      1.43s WALL (     100 calls)
     ffts         :      0.10s CPU      0.06s WALL (       9 calls)
     fftw         :    209.52s CPU    129.50s WALL (   20900 calls)

     Parallel routines

     PWSCF        :   5m55.80s CPU   3m44.39s WALL


   This run was terminated on:  18:27:13  12Jul2023            

=------------------------------------------------------------------------------=
   JOB DONE.
=------------------------------------------------------------------------------=
