### Running on host: qmobile

     Program PWSCF v.7.0 starts on 12Jul2023 at 18:20:45 

     This program is part of the open-source Quantum ESPRESSO suite
     for quantum simulation of materials; please cite
         "P. Giannozzi et al., J. Phys.:Condens. Matter 21 395502 (2009);
         "P. Giannozzi et al., J. Phys.:Condens. Matter 29 465901 (2017);
         "P. Giannozzi et al., J. Chem. Phys. 152 154105 (2020);
          URL http://www.quantum-espresso.org", 
     in publications or presentations arising from this work. More details at
     http://www.quantum-espresso.org/quote

     Parallel version (MPI & OpenMP), running on       2 processor cores
     Number of MPI processes:                 1
     Threads/MPI process:                     2

     MPI processes distributed on     1 nodes
     89791 MiB available memory on the printing compute node when the environment starts

     Reading input from silicene_scf_kpoints-10.in

     Current dimensions of program PWSCF are:
     Max number of different atomic species (ntypx) = 10
     Max number of k-points (npk) =  40000
     Max angular momentum in pseudopotentials (lmaxx) =  4
     file Si.pbe-n-kjpaw_psl.1.0.0.UPF: wavefunction(s)  3S 3P renormalized

     Subspace diagonalization in iterative solution of the eigenvalue problem:
     a serial algorithm will be used


     G-vector sticks info
     --------------------
     sticks:   dense  smooth     PW     G-vecs:    dense   smooth      PW
     Sum         745     745    235                83451    83451   14669

     Using Slab Decomposition



     bravais-lattice index     =           -9
     lattice parameter (alat)  =       7.2962  a.u.
     unit-cell volume          =    1742.4604 (a.u.)^3
     number of atoms/cell      =            2
     number of atomic types    =            1
     number of electrons       =         8.00
     number of Kohn-Sham states=            8
     kinetic-energy cutoff     =      50.0000  Ry
     charge density cutoff     =     200.0000  Ry
     scf convergence threshold =      1.0E-08
     mixing beta               =       0.7000
     number of iterations used =            8  plain     mixing
     Exchange-correlation= SLA  PW   PBX  PBC
                           (   1   4   3   4   0   0   0)

     celldm(1)=   7.296200  celldm(2)=   1.732100  celldm(3)=   5.180000
     celldm(4)=   0.000000  celldm(5)=   0.000000  celldm(6)=   0.000000

     crystal axes: (cart. coord. in units of alat)
               a(1) = (   0.500000  -0.866050   0.000000 )  
               a(2) = (   0.500000   0.866050   0.000000 )  
               a(3) = (   0.000000   0.000000   5.180000 )  

     reciprocal axes: (cart. coord. in units 2 pi/alat)
               b(1) = (  1.000000 -0.577334  0.000000 )  
               b(2) = (  1.000000  0.577334 -0.000000 )  
               b(3) = ( -0.000000  0.000000  0.193050 )  


     PseudoPot. # 1 for Si read from file:
     ../pseudos/Si.pbe-n-kjpaw_psl.1.0.0.UPF
     MD5 check sum: c39c59da582df4a0d9f10159256ea34e
     Pseudo is Projector augmented-wave + core cor, Zval =  4.0
     Generated using &quot;atomic&quot; code by A. Dal Corso  v.6.3
     Shape of augmentation charge: PSQ
     Using radial grid of 1141 points,  6 beta functions with: 
                l(1) =   0
                l(2) =   0
                l(3) =   1
                l(4) =   1
                l(5) =   2
                l(6) =   2
     Q(r) pseudized with 0 coefficients 


     atomic species   valence    mass     pseudopotential
        Si             4.00    28.08550     Si( 1.00)

      2 Sym. Ops. (no inversion) found



   Cartesian axes

     site n.     atom                  positions (alat units)
         1           Si  tau(   1) = (   0.5000000  -0.2886833   2.0476077  )
         2           Si  tau(   2) = (   0.5000000   0.2886833   2.1611423  )

     number of k points=    31  Gaussian smearing, width (Ry)=  0.0100
                       cart. coord. in units 2pi/alat
        k(    1) = (   0.0000000   0.0000000   0.0000000), wk =   0.0200000
        k(    2) = (   0.1000000   0.0577334   0.0000000), wk =   0.0800000
        k(    3) = (   0.2000000   0.1154668   0.0000000), wk =   0.0800000
        k(    4) = (   0.3000000   0.1732002   0.0000000), wk =   0.0800000
        k(    5) = (   0.4000000   0.2309335   0.0000000), wk =   0.0800000
        k(    6) = (  -0.5000000  -0.2886669   0.0000000), wk =   0.0400000
        k(    7) = (   0.2000000   0.0000000   0.0000000), wk =   0.0400000
        k(    8) = (   0.3000000   0.0577334   0.0000000), wk =   0.0800000
        k(    9) = (   0.4000000   0.1154668   0.0000000), wk =   0.0800000
        k(   10) = (   0.5000000   0.1732002   0.0000000), wk =   0.0800000
        k(   11) = (  -0.4000000  -0.3464003   0.0000000), wk =   0.0800000
        k(   12) = (  -0.3000000  -0.2886669   0.0000000), wk =   0.0800000
        k(   13) = (  -0.2000000  -0.2309335   0.0000000), wk =   0.0800000
        k(   14) = (  -0.1000000  -0.1732002   0.0000000), wk =   0.0800000
        k(   15) = (   0.0000000  -0.1154668   0.0000000), wk =   0.0400000
        k(   16) = (   0.4000000   0.0000000   0.0000000), wk =   0.0400000
        k(   17) = (   0.5000000   0.0577334   0.0000000), wk =   0.0800000
        k(   18) = (   0.6000000   0.1154668   0.0000000), wk =   0.0800000
        k(   19) = (  -0.3000000  -0.4041337   0.0000000), wk =   0.0800000
        k(   20) = (  -0.2000000  -0.3464003   0.0000000), wk =   0.0800000
        k(   21) = (  -0.1000000  -0.2886669   0.0000000), wk =   0.0800000
        k(   22) = (   0.0000000  -0.2309335   0.0000000), wk =   0.0400000
        k(   23) = (   0.6000000   0.0000000   0.0000000), wk =   0.0400000
        k(   24) = (   0.7000000   0.0577334   0.0000000), wk =   0.0800000
        k(   25) = (  -0.2000000  -0.4618671   0.0000000), wk =   0.0800000
        k(   26) = (  -0.1000000  -0.4041337   0.0000000), wk =   0.0800000
        k(   27) = (  -0.0000000  -0.3464003   0.0000000), wk =   0.0400000
        k(   28) = (   0.8000000   0.0000000   0.0000000), wk =   0.0400000
        k(   29) = (  -0.1000000  -0.5196005   0.0000000), wk =   0.0800000
        k(   30) = (   0.0000000  -0.4618671   0.0000000), wk =   0.0400000
        k(   31) = (  -1.0000000   0.0000000   0.0000000), wk =   0.0200000

     Dense  grid:    83451 G-vectors     FFT dimensions: (  36,  36, 180)

     Estimated max dynamical RAM per process >     337.60 MB

     Initial potential from superposition of free atoms

     starting charge       7.9989, renormalised to       8.0000

     negative rho (up, down):  1.161E-04 0.000E+00
     Starting wfcs are    8 randomized atomic wfcs
     Checking if some PAW data can be deallocated... 

     total cpu time spent up to now is        8.6 secs

     per-process dynamical memory:    96.6 Mb

     Self-consistent Calculation

     iteration #  1     ecut=    50.00 Ry     beta= 0.70
     Davidson diagonalization with overlap
     ethr =  1.00E-02,  avg # of iterations =  4.6

     Threshold (ethr) on eigenvalues was too large:
     Diagonalizing with lowered threshold

     Davidson diagonalization with overlap
     ethr =  7.47E-04,  avg # of iterations =  1.4

     negative rho (up, down):  1.108E-04 0.000E+00

     total cpu time spent up to now is       40.9 secs

     total energy              =     -93.35270692 Ry
     estimated scf accuracy    <       0.06559052 Ry

     iteration #  2     ecut=    50.00 Ry     beta= 0.70
     Davidson diagonalization with overlap
     ethr =  8.20E-04,  avg # of iterations =  2.9

     negative rho (up, down):  1.126E-04 0.000E+00

     total cpu time spent up to now is       56.4 secs

     total energy              =     -93.35930075 Ry
     estimated scf accuracy    <       0.00191433 Ry

     iteration #  3     ecut=    50.00 Ry     beta= 0.70
     Davidson diagonalization with overlap
     ethr =  2.39E-05,  avg # of iterations =  8.9

     negative rho (up, down):  1.133E-04 0.000E+00

     total cpu time spent up to now is       80.6 secs

     total energy              =     -93.35950947 Ry
     estimated scf accuracy    <       0.00013448 Ry

     iteration #  4     ecut=    50.00 Ry     beta= 0.70
     Davidson diagonalization with overlap
     c_bands:  1 eigenvalues not converged
     ethr =  1.68E-06,  avg # of iterations =  7.1

     negative rho (up, down):  1.132E-04 0.000E+00

     total cpu time spent up to now is      103.1 secs

     total energy              =     -93.35950458 Ry
     estimated scf accuracy    <       0.00019434 Ry

     iteration #  5     ecut=    50.00 Ry     beta= 0.70
     Davidson diagonalization with overlap
     ethr =  1.68E-06,  avg # of iterations =  2.2

     negative rho (up, down):  1.129E-04 0.000E+00

     total cpu time spent up to now is      117.1 secs

     total energy              =     -93.35953573 Ry
     estimated scf accuracy    <       0.00000122 Ry

     iteration #  6     ecut=    50.00 Ry     beta= 0.70
     Davidson diagonalization with overlap
     ethr =  1.53E-08,  avg # of iterations =  2.6

     negative rho (up, down):  1.128E-04 0.000E+00

     total cpu time spent up to now is      132.6 secs

     total energy              =     -93.35953634 Ry
     estimated scf accuracy    <       0.00000011 Ry

     iteration #  7     ecut=    50.00 Ry     beta= 0.70
     Davidson diagonalization with overlap
     ethr =  1.36E-09,  avg # of iterations =  2.2

     negative rho (up, down):  1.127E-04 0.000E+00

     total cpu time spent up to now is      147.4 secs

     total energy              =     -93.35953636 Ry
     estimated scf accuracy    <       0.00000001 Ry

     iteration #  8     ecut=    50.00 Ry     beta= 0.70
     Davidson diagonalization with overlap
     ethr =  1.68E-10,  avg # of iterations =  2.5

     negative rho (up, down):  1.127E-04 0.000E+00

     total cpu time spent up to now is      163.1 secs

     End of self-consistent calculation

          k = 0.0000 0.0000 0.0000 ( 10447 PWs)   bands (ev):

   -14.0111  -6.0524  -4.1661  -4.1660  -0.9860  -0.2796   0.0832   0.0836

          k = 0.1000 0.0577 0.0000 ( 10387 PWs)   bands (ev):

   -13.8942  -5.9766  -4.9783  -4.3673  -0.5619  -0.1996   0.3048   0.5106

          k = 0.2000 0.1155 0.0000 ( 10396 PWs)   bands (ev):

   -13.5473  -6.6364  -5.4971  -4.7888  -0.9490  -0.0726   1.5801   1.5975

          k = 0.3000 0.1732 0.0000 ( 10390 PWs)   bands (ev):

   -12.9863  -8.1095  -5.1903  -5.0024  -1.4527  -0.5312   1.4914   3.0021

          k = 0.4000 0.2309 0.0000 ( 10418 PWs)   bands (ev):

   -12.2711  -9.4177  -5.4585  -4.3381  -1.8529  -1.4758   2.0948   3.7613

          k =-0.5000-0.2887 0.0000 ( 10434 PWs)   bands (ev):

   -11.7788 -10.1123  -5.5515  -3.8973  -2.2412  -1.7984   2.7135   3.5597

          k = 0.2000 0.0000 0.0000 ( 10403 PWs)   bands (ev):

   -13.6621  -6.2284  -5.5373  -4.8029  -0.1390  -0.0362   0.0742   1.7774

          k = 0.3000 0.0577 0.0000 ( 10400 PWs)   bands (ev):

   -13.2065  -7.4899  -5.3887  -5.1909  -0.5761  -0.1681   1.2508   1.5696

          k = 0.4000 0.1155 0.0000 ( 10417 PWs)   bands (ev):

   -12.5554  -8.8315  -5.8173  -4.5860  -1.2398  -0.7471   1.8306   2.7044

          k = 0.5000 0.1732 0.0000 ( 10419 PWs)   bands (ev):

   -11.8465  -9.9115  -6.0394  -3.9268  -2.0803  -1.0336   2.3826   3.0028

          k =-0.4000-0.3464 0.0000 ( 10419 PWs)   bands (ev):

   -11.8466  -9.9115  -6.0394  -3.9268  -2.0803  -1.0335   2.3826   3.0028

          k =-0.3000-0.2887 0.0000 ( 10417 PWs)   bands (ev):

   -12.5555  -8.8314  -5.8174  -4.5860  -1.2398  -0.7471   1.8306   2.7046

          k =-0.2000-0.2309 0.0000 ( 10402 PWs)   bands (ev):

   -13.2065  -7.4899  -5.3888  -5.1909  -0.5760  -0.1680   1.2512   1.5697

          k =-0.1000-0.1732 0.0000 ( 10403 PWs)   bands (ev):

   -13.6622  -6.2284  -5.5373  -4.8029  -0.1390  -0.0357   0.0742   1.7778

          k = 0.0000-0.1155 0.0000 ( 10387 PWs)   bands (ev):

   -13.8942  -5.9766  -4.9784  -4.3672  -0.5616  -0.1996   0.3044   0.5108

          k = 0.4000 0.0000 0.0000 ( 10380 PWs)   bands (ev):

   -12.6541  -8.4978  -6.1937  -4.6732  -0.9293   0.7799   1.0432   1.8307

          k = 0.5000 0.0577 0.0000 ( 10397 PWs)   bands (ev):

   -11.9388  -9.5500  -6.7242  -3.9953  -1.7853   0.6272   1.8272   2.5423

          k = 0.6000 0.1155 0.0000 ( 10380 PWs)   bands (ev):

   -11.4058 -10.2105  -6.8981  -3.4991  -2.3628   0.5342   1.6351   3.3302

          k =-0.3000-0.4041 0.0000 ( 10401 PWs)   bands (ev):

   -11.9389  -9.5499  -6.7242  -3.9954  -1.7853   0.6273   1.8272   2.5422

          k =-0.2000-0.3464 0.0000 ( 10380 PWs)   bands (ev):

   -12.6541  -8.4977  -6.1937  -4.6733  -0.9293   0.7801   1.0436   1.8305

          k =-0.1000-0.2887 0.0000 ( 10400 PWs)   bands (ev):

   -13.2065  -7.4900  -5.3886  -5.1909  -0.5758  -0.1680   1.2510   1.5696

          k = 0.0000-0.2309 0.0000 ( 10396 PWs)   bands (ev):

   -13.5473  -6.6365  -5.4972  -4.7887  -0.9487  -0.0726   1.5801   1.5976

          k = 0.6000 0.0000 0.0000 ( 10398 PWs)   bands (ev):

   -11.2022 -10.2979  -7.2866  -3.3008  -2.4632   1.2485   2.2787   2.6852

          k = 0.7000 0.0577 0.0000 ( 10398 PWs)   bands (ev):

   -11.2023 -10.2978  -7.2866  -3.3010  -2.4631   1.2485   2.2788   2.6855

          k =-0.2000-0.4619 0.0000 ( 10399 PWs)   bands (ev):

   -11.9390  -9.5499  -6.7241  -3.9954  -1.7853   0.6277   1.8273   2.5422

          k =-0.1000-0.4041 0.0000 ( 10417 PWs)   bands (ev):

   -12.5555  -8.8315  -5.8172  -4.5861  -1.2398  -0.7468   1.8305   2.7043

          k =-0.0000-0.3464 0.0000 ( 10390 PWs)   bands (ev):

   -12.9863  -8.1096  -5.1901  -5.0024  -1.4524  -0.5312   1.4913   3.0022

          k = 0.8000 0.0000 0.0000 ( 10380 PWs)   bands (ev):

   -11.4060 -10.2104  -6.8980  -3.4993  -2.3627   0.5347   1.6352   3.3303

          k =-0.1000-0.5196 0.0000 ( 10419 PWs)   bands (ev):

   -11.8467  -9.9115  -6.0392  -3.9269  -2.0803  -1.0332   2.3826   3.0028

          k = 0.0000-0.4619 0.0000 ( 10418 PWs)   bands (ev):

   -12.2712  -9.4177  -5.4583  -4.3382  -1.8527  -1.4757   2.0948   3.7620

          k =-1.0000 0.0000 0.0000 ( 10434 PWs)   bands (ev):

   -11.7790 -10.1122  -5.5513  -3.8974  -2.2411  -1.7981   2.7134   3.7734

     the Fermi energy is    -2.8821 ev

!    total energy              =     -93.35953637 Ry

     total all-electron energy =     -1160.051266 Ry
     estimated scf accuracy    <          4.4E-10 Ry
     smearing contrib. (-TS)   =      -0.00000005 Ry
     internal energy E=F+TS    =     -93.35953631 Ry

     The total energy is F=E-TS. E is the sum of the following terms:
     one-electron contribution =     -80.75520211 Ry
     hartree contribution      =      41.59913270 Ry
     xc contribution           =     -12.15074836 Ry
     ewald contribution        =      29.13615741 Ry
     one-center paw contrib.   =     -71.18887596 Ry

     convergence has been achieved in   8 iterations

     Writing all to output data dir ./silicene.save/

     init_run     :     12.16s CPU      8.27s WALL (       1 calls)
     electrons    :    249.20s CPU    154.53s WALL (       1 calls)

     Called by init_run:
     wfcinit      :      8.06s CPU      4.94s WALL (       1 calls)
     potinit      :      1.01s CPU      0.67s WALL (       1 calls)
     hinit0       :      2.32s CPU      2.07s WALL (       1 calls)

     Called by electrons:
     c_bands      :    200.45s CPU    124.04s WALL (       9 calls)
     sum_band     :     38.17s CPU     24.14s WALL (       9 calls)
     v_of_rho     :      1.66s CPU      0.89s WALL (       9 calls)
     newd         :      5.44s CPU      3.77s WALL (       9 calls)
     PAW_pot      :      4.43s CPU      2.29s WALL (       9 calls)
     mix_rho      :      0.24s CPU      0.12s WALL (       9 calls)

     Called by c_bands:
     init_us_2    :      3.64s CPU      2.27s WALL (     589 calls)
     init_us_2:cp :      3.63s CPU      2.27s WALL (     589 calls)
     cegterg      :    191.47s CPU    118.79s WALL (     279 calls)

     Called by *egterg:
     cdiaghg      :      0.38s CPU      0.22s WALL (    1309 calls)
     h_psi        :    157.57s CPU     95.64s WALL (    1371 calls)
     s_psi        :      5.56s CPU      3.65s WALL (    1371 calls)
     g_psi        :      3.77s CPU      2.62s WALL (    1061 calls)

     Called by h_psi:
     h_psi:calbec :     11.24s CPU      6.64s WALL (    1371 calls)
     vloc_psi     :    140.94s CPU     85.65s WALL (    1371 calls)
     add_vuspsi   :      2.86s CPU      1.56s WALL (    1371 calls)

     General routines
     calbec       :     13.92s CPU      8.21s WALL (    1650 calls)
     fft          :      1.80s CPU      1.42s WALL (     100 calls)
     ffts         :      0.05s CPU      0.03s WALL (       9 calls)
     fftw         :    149.96s CPU     91.44s WALL (   15194 calls)

     Parallel routines

     PWSCF        :   4m21.96s CPU   2m43.46s WALL


   This run was terminated on:  18:23:29  12Jul2023            

=------------------------------------------------------------------------------=
   JOB DONE.
=------------------------------------------------------------------------------=
