
     Program BANDS v.7.0 starts on 13Jul2023 at 12:17:47 

     This program is part of the open-source Quantum ESPRESSO suite
     for quantum simulation of materials; please cite
         "P. Giannozzi et al., J. Phys.:Condens. Matter 21 395502 (2009);
         "P. Giannozzi et al., J. Phys.:Condens. Matter 29 465901 (2017);
         "P. Giannozzi et al., J. Chem. Phys. 152 154105 (2020);
          URL http://www.quantum-espresso.org", 
     in publications or presentations arising from this work. More details at
     http://www.quantum-espresso.org/quote

     Parallel version (MPI & OpenMP), running on       2 processor cores
     Number of MPI processes:                 1
     Threads/MPI process:                     2

     MPI processes distributed on     1 nodes
     86748 MiB available memory on the printing compute node when the environment starts


     Reading xml data from directory:

     ./silicene_bands.save/
     file Si.pbe-n-kjpaw_psl.1.0.0.UPF: wavefunction(s)  3S 3P renormalized

     IMPORTANT: XC functional enforced from input :
     Exchange-correlation= PBE
                           (   1   4   3   4   0   0   0)
     Any further DFT definition will be discarded
     Please, verify this is what you really want


     G-vector sticks info
     --------------------
     sticks:   dense  smooth     PW     G-vecs:    dense   smooth      PW
     Sum        1813     745    211               328517    83451   13117

     Using Slab Decomposition


     negative rho (up, down):  1.127E-05 0.000E+00
     Reading collected, re-writing distributed wavefunctions
     high-symmetry point:  0.0000 0.0000 0.0000   x coordinate   0.0000
     high-symmetry point:  0.5000 0.2887 0.0000   x coordinate   0.5773
     high-symmetry point:  0.6667 0.0000 0.0000   x coordinate   0.9107
     high-symmetry point:  0.0000 0.0000 0.0000   x coordinate   1.5773

     Plottable bands (eV) written to file silicene_bands.dat.gnu
     Bands written to file silicene_bands.dat

 **************************************************************************

                    xk=(   0.00000,   0.00000,   0.00000  )

     point group C_s (m)    
     there are  2 classes
     the character table:

       E     s    
A'     1.00  1.00
A''    1.00 -1.00

     the symmetry operations in each class and the name of the first element:

     E        1
                                                                 
     s        2
                                                                 

     Band symmetry, C_s (m)     point group:

     e(  1 -  1) =    -14.01092  eV     1   --> A'             
     e(  2 -  2) =     -6.05221  eV     1   --> A'             
     e(  3 -  3) =     -4.16588  eV     1   --> A'             
     e(  4 -  4) =     -4.16577  eV     1   --> A''            
     e(  5 -  5) =     -0.98593  eV     1   --> A'             
     e(  6 -  6) =     -0.27455  eV     1   --> A'             
     e(  7 -  7) =      0.08337  eV     1   --> A'             
     e(  8 -  8) =      0.08370  eV     1   --> A''            

 **************************************************************************

 **************************************************************************

                    xk=(   0.01250,   0.00722,   0.00000  )

     point group C_1 (1)    
     there are  1 classes
     the character table:

       E    
A      1.00

     the symmetry operations in each class and the name of the first element:

     E        1
                                                                 

     Band symmetry, C_1 (1)     point group:

     e(  1 -  1) =    -14.00909  eV     1   --> A              
     e(  2 -  2) =     -6.05079  eV     1   --> A              
     e(  3 -  3) =     -4.18241  eV     1   --> A              
     e(  4 -  4) =     -4.16936  eV     1   --> A              
     e(  5 -  5) =     -0.97130  eV     1   --> A              
     e(  6 -  6) =     -0.27324  eV     1   --> A              
     e(  7 -  7) =      0.08231  eV     1   --> A              
     e(  8 -  8) =      0.09050  eV     1   --> A              

 **************************************************************************

 **************************************************************************

                    xk=(   0.02500,   0.01443,   0.00000  )

     Band symmetry, C_1 (1)     point group:

     e(  1 -  1) =    -14.00359  eV     1   --> A              
     e(  2 -  2) =     -6.04655  eV     1   --> A              
     e(  3 -  3) =     -4.23114  eV     1   --> A              
     e(  4 -  4) =     -4.17980  eV     1   --> A              
     e(  5 -  5) =     -0.92907  eV     1   --> A              
     e(  6 -  6) =     -0.26932  eV     1   --> A              
     e(  7 -  7) =      0.07908  eV     1   --> A              
     e(  8 -  8) =      0.11157  eV     1   --> A              

 **************************************************************************

 **************************************************************************

                    xk=(   0.03750,   0.02165,   0.00000  )

     Band symmetry, C_1 (1)     point group:

     e(  1 -  1) =    -13.99444  eV     1   --> A              
     e(  2 -  2) =     -6.03960  eV     1   --> A              
     e(  3 -  3) =     -4.30895  eV     1   --> A              
     e(  4 -  4) =     -4.19694  eV     1   --> A              
     e(  5 -  5) =     -0.86414  eV     1   --> A              
     e(  6 -  6) =     -0.26286  eV     1   --> A              
     e(  7 -  7) =      0.07621  eV     1   --> A              
     e(  8 -  8) =      0.14642  eV     1   --> A              

 **************************************************************************

 **************************************************************************

                    xk=(   0.05000,   0.02887,   0.00000  )

     Band symmetry, C_1 (1)     point group:

     e(  1 -  1) =    -13.98164  eV     1   --> A              
     e(  2 -  2) =     -6.03009  eV     1   --> A              
     e(  3 -  3) =     -4.41163  eV     1   --> A              
     e(  4 -  4) =     -4.22042  eV     1   --> A              
     e(  5 -  5) =     -0.78446  eV     1   --> A              
     e(  6 -  6) =     -0.25396  eV     1   --> A              
     e(  7 -  7) =      0.07808  eV     1   --> A              
     e(  8 -  8) =      0.19467  eV     1   --> A              

 **************************************************************************

 **************************************************************************

                    xk=(   0.06250,   0.03608,   0.00000  )

     Band symmetry, C_1 (1)     point group:

     e(  1 -  1) =    -13.96519  eV     1   --> A              
     e(  2 -  2) =     -6.01832  eV     1   --> A              
     e(  3 -  3) =     -4.53446  eV     1   --> A              
     e(  4 -  4) =     -4.24976  eV     1   --> A              
     e(  5 -  5) =     -0.70120  eV     1   --> A              
     e(  6 -  6) =     -0.24271  eV     1   --> A              
     e(  7 -  7) =      0.09207  eV     1   --> A              
     e(  8 -  8) =      0.25583  eV     1   --> A              

 **************************************************************************

 **************************************************************************

                    xk=(   0.07500,   0.04330,   0.00000  )

     Band symmetry, C_1 (1)     point group:

     e(  1 -  1) =    -13.94509  eV     1   --> A              
     e(  2 -  2) =     -6.00478  eV     1   --> A              
     e(  3 -  3) =     -4.67281  eV     1   --> A              
     e(  4 -  4) =     -4.28440  eV     1   --> A              
     e(  5 -  5) =     -0.62843  eV     1   --> A              
     e(  6 -  6) =     -0.22913  eV     1   --> A              
     e(  7 -  7) =      0.12861  eV     1   --> A              
     e(  8 -  8) =      0.32932  eV     1   --> A              

 **************************************************************************

 **************************************************************************

                    xk=(   0.08750,   0.05052,   0.00000  )

     Band symmetry, C_1 (1)     point group:

     e(  1 -  1) =    -13.92136  eV     1   --> A              
     e(  2 -  2) =     -5.99031  eV     1   --> A              
     e(  3 -  3) =     -4.82219  eV     1   --> A              
     e(  4 -  4) =     -4.32372  eV     1   --> A              
     e(  5 -  5) =     -0.57980  eV     1   --> A              
     e(  6 -  6) =     -0.21318  eV     1   --> A              
     e(  7 -  7) =      0.19824  eV     1   --> A              
     e(  8 -  8) =      0.41450  eV     1   --> A              

 **************************************************************************

 **************************************************************************

                    xk=(   0.10000,   0.05773,   0.00000  )

     Band symmetry, C_1 (1)     point group:

     e(  1 -  1) =    -13.89402  eV     1   --> A              
     e(  2 -  2) =     -5.97641  eV     1   --> A              
     e(  3 -  3) =     -4.97807  eV     1   --> A              
     e(  4 -  4) =     -4.36709  eV     1   --> A              
     e(  5 -  5) =     -0.56177  eV     1   --> A              
     e(  6 -  6) =     -0.19509  eV     1   --> A              
     e(  7 -  7) =      0.30506  eV     1   --> A              
     e(  8 -  8) =      0.51069  eV     1   --> A              

 **************************************************************************

 **************************************************************************

                    xk=(   0.11250,   0.06495,   0.00000  )

     Band symmetry, C_1 (1)     point group:

     e(  1 -  1) =    -13.86307  eV     1   --> A              
     e(  2 -  2) =     -5.96598  eV     1   --> A              
     e(  3 -  3) =     -5.13511  eV     1   --> A              
     e(  4 -  4) =     -4.41386  eV     1   --> A              
     e(  5 -  5) =     -0.57129  eV     1   --> A              
     e(  6 -  6) =     -0.17547  eV     1   --> A              
     e(  7 -  7) =      0.44450  eV     1   --> A              
     e(  8 -  8) =      0.61721  eV     1   --> A              

 **************************************************************************

 **************************************************************************

                    xk=(   0.12500,   0.07217,   0.00000  )

     Band symmetry, C_1 (1)     point group:

     e(  1 -  1) =    -13.82852  eV     1   --> A              
     e(  2 -  2) =     -5.96483  eV     1   --> A              
     e(  3 -  3) =     -5.28553  eV     1   --> A              
     e(  4 -  4) =     -4.46341  eV     1   --> A              
     e(  5 -  5) =     -0.60109  eV     1   --> A              
     e(  6 -  6) =     -0.15504  eV     1   --> A              
     e(  7 -  7) =      0.60807  eV     1   --> A              
     e(  8 -  8) =      0.73338  eV     1   --> A              

 **************************************************************************

 **************************************************************************

                    xk=(   0.13750,   0.07938,   0.00000  )

     Band symmetry, C_1 (1)     point group:

     e(  1 -  1) =    -13.79041  eV     1   --> A              
     e(  2 -  2) =     -5.98455  eV     1   --> A              
     e(  3 -  3) =     -5.41617  eV     1   --> A              
     e(  4 -  4) =     -4.51515  eV     1   --> A              
     e(  5 -  5) =     -0.64458  eV     1   --> A              
     e(  6 -  6) =     -0.13453  eV     1   --> A              
     e(  7 -  7) =      0.78802  eV     1   --> A              
     e(  8 -  8) =      0.85855  eV     1   --> A              

 **************************************************************************

 **************************************************************************

                    xk=(   0.15000,   0.08660,   0.00000  )

     Band symmetry, C_1 (1)     point group:

     e(  1 -  1) =    -13.74874  eV     1   --> A              
     e(  2 -  2) =     -6.04276  eV     1   --> A              
     e(  3 -  3) =     -5.50819  eV     1   --> A              
     e(  4 -  4) =     -4.56851  eV     1   --> A              
     e(  5 -  5) =     -0.69713  eV     1   --> A              
     e(  6 -  6) =     -0.11480  eV     1   --> A              
     e(  7 -  7) =      0.97821  eV     1   --> A              
     e(  8 -  8) =      0.99207  eV     1   --> A              

 **************************************************************************

 **************************************************************************

                    xk=(   0.16250,   0.09382,   0.00000  )

     Band symmetry, C_1 (1)     point group:

     e(  1 -  1) =    -13.70355  eV     1   --> A              
     e(  2 -  2) =     -6.14927  eV     1   --> A              
     e(  3 -  3) =     -5.55078  eV     1   --> A              
     e(  4 -  4) =     -4.62298  eV     1   --> A              
     e(  5 -  5) =     -0.75565  eV     1   --> A              
     e(  6 -  6) =     -0.09691  eV     1   --> A              
     e(  7 -  7) =      1.13333  eV     1   --> A              
     e(  8 -  8) =      1.17295  eV     1   --> A              

 **************************************************************************

 **************************************************************************

                    xk=(   0.17500,   0.10103,   0.00000  )

     Band symmetry, C_1 (1)     point group:

     e(  1 -  1) =    -13.65486  eV     1   --> A              
     e(  2 -  2) =     -6.29354  eV     1   --> A              
     e(  3 -  3) =     -5.55367  eV     1   --> A              
     e(  4 -  4) =     -4.67810  eV     1   --> A              
     e(  5 -  5) =     -0.81803  eV     1   --> A              
     e(  6 -  6) =     -0.08227  eV     1   --> A              
     e(  7 -  7) =      1.28174  eV     1   --> A              
     e(  8 -  8) =      1.36356  eV     1   --> A              

 **************************************************************************

 **************************************************************************

                    xk=(   0.18750,   0.10825,   0.00000  )

     Band symmetry, C_1 (1)     point group:

     e(  1 -  1) =    -13.60271  eV     1   --> A              
     e(  2 -  2) =     -6.45933  eV     1   --> A              
     e(  3 -  3) =     -5.53245  eV     1   --> A              
     e(  4 -  4) =     -4.73344  eV     1   --> A              
     e(  5 -  5) =     -0.88279  eV     1   --> A              
     e(  6 -  6) =     -0.07262  eV     1   --> A              
     e(  7 -  7) =      1.43670  eV     1   --> A              
     e(  8 -  8) =      1.52644  eV     1   --> A              

 **************************************************************************

 **************************************************************************

                    xk=(   0.20000,   0.11547,   0.00000  )

     Band symmetry, C_1 (1)     point group:

     e(  1 -  1) =    -13.54713  eV     1   --> A              
     e(  2 -  2) =     -6.63625  eV     1   --> A              
     e(  3 -  3) =     -5.49697  eV     1   --> A              
     e(  4 -  4) =     -4.78861  eV     1   --> A              
     e(  5 -  5) =     -0.94884  eV     1   --> A              
     e(  6 -  6) =     -0.07011  eV     1   --> A              
     e(  7 -  7) =      1.59763  eV     1   --> A              
     e(  8 -  8) =      1.60323  eV     1   --> A              

 **************************************************************************

 **************************************************************************

                    xk=(   0.21250,   0.12268,   0.00000  )

     Band symmetry, C_1 (1)     point group:

     e(  1 -  1) =    -13.48816  eV     1   --> A              
     e(  2 -  2) =     -6.81886  eV     1   --> A              
     e(  3 -  3) =     -5.45224  eV     1   --> A              
     e(  4 -  4) =     -4.84327  eV     1   --> A              
     e(  5 -  5) =     -1.01535  eV     1   --> A              
     e(  6 -  6) =     -0.07721  eV     1   --> A              
     e(  7 -  7) =      1.58860  eV     1   --> A              
     e(  8 -  8) =      1.76394  eV     1   --> A              

 **************************************************************************

 **************************************************************************

                    xk=(   0.22500,   0.12990,   0.00000  )

     Band symmetry, C_1 (1)     point group:

     e(  1 -  1) =    -13.42586  eV     1   --> A              
     e(  2 -  2) =     -7.00422  eV     1   --> A              
     e(  3 -  3) =     -5.40081  eV     1   --> A              
     e(  4 -  4) =     -4.89713  eV     1   --> A              
     e(  5 -  5) =     -1.08165  eV     1   --> A              
     e(  6 -  6) =     -0.09652  eV     1   --> A              
     e(  7 -  7) =      1.54448  eV     1   --> A              
     e(  8 -  8) =      1.93495  eV     1   --> A              

 **************************************************************************

 **************************************************************************

                    xk=(   0.23750,   0.13712,   0.00000  )

     Band symmetry, C_1 (1)     point group:

     e(  1 -  1) =    -13.36029  eV     1   --> A              
     e(  2 -  2) =     -7.19065  eV     1   --> A              
     e(  3 -  3) =     -5.34408  eV     1   --> A              
     e(  4 -  4) =     -4.94990  eV     1   --> A              
     e(  5 -  5) =     -1.14725  eV     1   --> A              
     e(  6 -  6) =     -0.13038  eV     1   --> A              
     e(  7 -  7) =      1.50079  eV     1   --> A              
     e(  8 -  8) =      2.10993  eV     1   --> A              

 **************************************************************************

 **************************************************************************

                    xk=(   0.25000,   0.14433,   0.00000  )

     Band symmetry, C_1 (1)     point group:

     e(  1 -  1) =    -13.29150  eV     1   --> A              
     e(  2 -  2) =     -7.37705  eV     1   --> A              
     e(  3 -  3) =     -5.28286  eV     1   --> A              
     e(  4 -  4) =     -5.00136  eV     1   --> A              
     e(  5 -  5) =     -1.21171  eV     1   --> A              
     e(  6 -  6) =     -0.18033  eV     1   --> A              
     e(  7 -  7) =      1.46845  eV     1   --> A              
     e(  8 -  8) =      2.28798  eV     1   --> A              

 **************************************************************************

 **************************************************************************

                    xk=(   0.26250,   0.15155,   0.00000  )

     Band symmetry, C_1 (1)     point group:

     e(  1 -  1) =    -13.21959  eV     1   --> A              
     e(  2 -  2) =     -7.56266  eV     1   --> A              
     e(  3 -  3) =     -5.21770  eV     1   --> A              
     e(  4 -  4) =     -5.05128  eV     1   --> A              
     e(  5 -  5) =     -1.27470  eV     1   --> A              
     e(  6 -  6) =     -0.24675  eV     1   --> A              
     e(  7 -  7) =      1.45194  eV     1   --> A              
     e(  8 -  8) =      2.38385  eV     1   --> A              

 **************************************************************************

 **************************************************************************

                    xk=(   0.27500,   0.15877,   0.00000  )

     Band symmetry, C_1 (1)     point group:

     e(  1 -  1) =    -13.14463  eV     1   --> A              
     e(  2 -  2) =     -7.74689  eV     1   --> A              
     e(  3 -  3) =     -5.14901  eV     1   --> A              
     e(  4 -  4) =     -5.09949  eV     1   --> A              
     e(  5 -  5) =     -1.33596  eV     1   --> A              
     e(  6 -  6) =     -0.32872  eV     1   --> A              
     e(  7 -  7) =      1.45257  eV     1   --> A              
     e(  8 -  8) =      2.47071  eV     1   --> A              

 **************************************************************************

 **************************************************************************

                    xk=(   0.28750,   0.16598,   0.00000  )

     Band symmetry, C_1 (1)     point group:

     e(  1 -  1) =    -13.06676  eV     1   --> A              
     e(  2 -  2) =     -7.92926  eV     1   --> A              
     e(  3 -  3) =     -5.14580  eV     1   --> A              
     e(  4 -  4) =     -5.07708  eV     1   --> A              
     e(  5 -  5) =     -1.39528  eV     1   --> A              
     e(  6 -  6) =     -0.42427  eV     1   --> A              
     e(  7 -  7) =      1.46981  eV     1   --> A              
     e(  8 -  8) =      2.56140  eV     1   --> A              

 **************************************************************************

 **************************************************************************

                    xk=(   0.30000,   0.17320,   0.00000  )

     Band symmetry, C_1 (1)     point group:

     e(  1 -  1) =    -12.98609  eV     1   --> A              
     e(  2 -  2) =     -8.10937  eV     1   --> A              
     e(  3 -  3) =     -5.19009  eV     1   --> A              
     e(  4 -  4) =     -5.00221  eV     1   --> A              
     e(  5 -  5) =     -1.45252  eV     1   --> A              
     e(  6 -  6) =     -0.53083  eV     1   --> A              
     e(  7 -  7) =      1.50214  eV     1   --> A              
     e(  8 -  8) =      2.65584  eV     1   --> A              

 **************************************************************************

 **************************************************************************

                    xk=(   0.31250,   0.18042,   0.00000  )

     Band symmetry, C_1 (1)     point group:

     e(  1 -  1) =    -12.90279  eV     1   --> A              
     e(  2 -  2) =     -8.28682  eV     1   --> A              
     e(  3 -  3) =     -5.23220  eV     1   --> A              
     e(  4 -  4) =     -4.92467  eV     1   --> A              
     e(  5 -  5) =     -1.50760  eV     1   --> A              
     e(  6 -  6) =     -0.64571  eV     1   --> A              
     e(  7 -  7) =      1.54768  eV     1   --> A              
     e(  8 -  8) =      2.75394  eV     1   --> A              

 **************************************************************************

 **************************************************************************

                    xk=(   0.32500,   0.18763,   0.00000  )

     Band symmetry, C_1 (1)     point group:

     e(  1 -  1) =    -12.81706  eV     1   --> A              
     e(  2 -  2) =     -8.46124  eV     1   --> A              
     e(  3 -  3) =     -5.27204  eV     1   --> A              
     e(  4 -  4) =     -4.84474  eV     1   --> A              
     e(  5 -  5) =     -1.56052  eV     1   --> A              
     e(  6 -  6) =     -0.76627  eV     1   --> A              
     e(  7 -  7) =      1.60454  eV     1   --> A              
     e(  8 -  8) =      2.85558  eV     1   --> A              

 **************************************************************************

 **************************************************************************

                    xk=(   0.33750,   0.19485,   0.00000  )

     Band symmetry, C_1 (1)     point group:

     e(  1 -  1) =    -12.72914  eV     1   --> A              
     e(  2 -  2) =     -8.63222  eV     1   --> A              
     e(  3 -  3) =     -5.30950  eV     1   --> A              
     e(  4 -  4) =     -4.76275  eV     1   --> A              
     e(  5 -  5) =     -1.61137  eV     1   --> A              
     e(  6 -  6) =     -0.89009  eV     1   --> A              
     e(  7 -  7) =      1.67103  eV     1   --> A              
     e(  8 -  8) =      2.96058  eV     1   --> A              

 **************************************************************************

 **************************************************************************

                    xk=(   0.35000,   0.20207,   0.00000  )

     Band symmetry, C_1 (1)     point group:

     e(  1 -  1) =    -12.63934  eV     1   --> A              
     e(  2 -  2) =     -8.79934  eV     1   --> A              
     e(  3 -  3) =     -5.34449  eV     1   --> A              
     e(  4 -  4) =     -4.67905  eV     1   --> A              
     e(  5 -  5) =     -1.66040  eV     1   --> A              
     e(  6 -  6) =     -1.01491  eV     1   --> A              
     e(  7 -  7) =      1.74566  eV     1   --> A              
     e(  8 -  8) =      3.06872  eV     1   --> A              

 **************************************************************************

 **************************************************************************

                    xk=(   0.36250,   0.20928,   0.00000  )

     Band symmetry, C_1 (1)     point group:

     e(  1 -  1) =    -12.54804  eV     1   --> A              
     e(  2 -  2) =     -8.96209  eV     1   --> A              
     e(  3 -  3) =     -5.37693  eV     1   --> A              
     e(  4 -  4) =     -4.59410  eV     1   --> A              
     e(  5 -  5) =     -1.70804  eV     1   --> A              
     e(  6 -  6) =     -1.13847  eV     1   --> A              
     e(  7 -  7) =      1.82715  eV     1   --> A              
     e(  8 -  8) =      3.17963  eV     1   --> A              

 **************************************************************************

 **************************************************************************

                    xk=(   0.37500,   0.21650,   0.00000  )

     Band symmetry, C_1 (1)     point group:

     e(  1 -  1) =    -12.45575  eV     1   --> A              
     e(  2 -  2) =     -9.11989  eV     1   --> A              
     e(  3 -  3) =     -5.40675  eV     1   --> A              
     e(  4 -  4) =     -4.50845  eV     1   --> A              
     e(  5 -  5) =     -1.75506  eV     1   --> A              
     e(  6 -  6) =     -1.25840  eV     1   --> A              
     e(  7 -  7) =      1.91436  eV     1   --> A              
     e(  8 -  8) =      3.29277  eV     1   --> A              

 **************************************************************************

 **************************************************************************

                    xk=(   0.38750,   0.22372,   0.00000  )

     Band symmetry, C_1 (1)     point group:

     e(  1 -  1) =    -12.36310  eV     1   --> A              
     e(  2 -  2) =     -9.27201  eV     1   --> A              
     e(  3 -  3) =     -5.43390  eV     1   --> A              
     e(  4 -  4) =     -4.42277  eV     1   --> A              
     e(  5 -  5) =     -1.80269  eV     1   --> A              
     e(  6 -  6) =     -1.37191  eV     1   --> A              
     e(  7 -  7) =      2.00622  eV     1   --> A              
     e(  8 -  8) =      3.40712  eV     1   --> A              

 **************************************************************************

 **************************************************************************

                    xk=(   0.40000,   0.23093,   0.00000  )

     Band symmetry, C_1 (1)     point group:

     e(  1 -  1) =    -12.27094  eV     1   --> A              
     e(  2 -  2) =     -9.41755  eV     1   --> A              
     e(  3 -  3) =     -5.45831  eV     1   --> A              
     e(  4 -  4) =     -4.33793  eV     1   --> A              
     e(  5 -  5) =     -1.85273  eV     1   --> A              
     e(  6 -  6) =     -1.47563  eV     1   --> A              
     e(  7 -  7) =      2.10168  eV     1   --> A              
     e(  8 -  8) =      3.52071  eV     1   --> A              

 **************************************************************************

 **************************************************************************

                    xk=(   0.41250,   0.23815,   0.00000  )

     Band symmetry, C_1 (1)     point group:

     e(  1 -  1) =    -12.18038  eV     1   --> A              
     e(  2 -  2) =     -9.55534  eV     1   --> A              
     e(  3 -  3) =     -5.47996  eV     1   --> A              
     e(  4 -  4) =     -4.25505  eV     1   --> A              
     e(  5 -  5) =     -1.90730  eV     1   --> A              
     e(  6 -  6) =     -1.56582  eV     1   --> A              
     e(  7 -  7) =      2.19953  eV     1   --> A              
     e(  8 -  8) =      3.62893  eV     1   --> A              

 **************************************************************************

 **************************************************************************

                    xk=(   0.42500,   0.24537,   0.00000  )

     Band symmetry, C_1 (1)     point group:

     e(  1 -  1) =    -12.09290  eV     1   --> A              
     e(  2 -  2) =     -9.68384  eV     1   --> A              
     e(  3 -  3) =     -5.49879  eV     1   --> A              
     e(  4 -  4) =     -4.17555  eV     1   --> A              
     e(  5 -  5) =     -1.96759  eV     1   --> A              
     e(  6 -  6) =     -1.63939  eV     1   --> A              
     e(  7 -  7) =      2.29834  eV     1   --> A              
     e(  8 -  8) =      3.71913  eV     1   --> A              

 **************************************************************************

 **************************************************************************

                    xk=(   0.43750,   0.25258,   0.00000  )

     Band symmetry, C_1 (1)     point group:

     e(  1 -  1) =    -12.01043  eV     1   --> A              
     e(  2 -  2) =     -9.80108  eV     1   --> A              
     e(  3 -  3) =     -5.51478  eV     1   --> A              
     e(  4 -  4) =     -4.10124  eV     1   --> A              
     e(  5 -  5) =     -2.03214  eV     1   --> A              
     e(  6 -  6) =     -1.69566  eV     1   --> A              
     e(  7 -  7) =      2.39620  eV     1   --> A              
     e(  8 -  8) =      3.76162  eV     1   --> A              

 **************************************************************************

 **************************************************************************

                    xk=(   0.45000,   0.25980,   0.00000  )

     Band symmetry, C_1 (1)     point group:

     e(  1 -  1) =    -11.93552  eV     1   --> A              
     e(  2 -  2) =     -9.90449  eV     1   --> A              
     e(  3 -  3) =     -5.52789  eV     1   --> A              
     e(  4 -  4) =     -4.03440  eV     1   --> A              
     e(  5 -  5) =     -2.09643  eV     1   --> A              
     e(  6 -  6) =     -1.73659  eV     1   --> A              
     e(  7 -  7) =      2.49036  eV     1   --> A              
     e(  8 -  8) =      3.74017  eV     1   --> A              

 **************************************************************************

 **************************************************************************

                    xk=(   0.46250,   0.26702,   0.00000  )

     Band symmetry, C_1 (1)     point group:

     e(  1 -  1) =    -11.87132  eV     1   --> A              
     e(  2 -  2) =     -9.99088  eV     1   --> A              
     e(  3 -  3) =     -5.53811  eV     1   --> A              
     e(  4 -  4) =     -3.97771  eV     1   --> A              
     e(  5 -  5) =     -2.15456  eV     1   --> A              
     e(  6 -  6) =     -1.76521  eV     1   --> A              
     e(  7 -  7) =      2.57668  eV     1   --> A              
     e(  8 -  8) =      3.68611  eV     1   --> A              

 **************************************************************************

 **************************************************************************

                    xk=(   0.47500,   0.27423,   0.00000  )

     Band symmetry, C_1 (1)     point group:

     e(  1 -  1) =    -11.82148  eV     1   --> A              
     e(  2 -  2) =    -10.05659  eV     1   --> A              
     e(  3 -  3) =     -5.54543  eV     1   --> A              
     e(  4 -  4) =     -3.93416  eV     1   --> A              
     e(  5 -  5) =     -2.20085  eV     1   --> A              
     e(  6 -  6) =     -1.78405  eV     1   --> A              
     e(  7 -  7) =      2.64895  eV     1   --> A              
     e(  8 -  8) =      3.62880  eV     1   --> A              

 **************************************************************************

 **************************************************************************

                    xk=(   0.48750,   0.28145,   0.00000  )

     Band symmetry, C_1 (1)     point group:

     e(  1 -  1) =    -11.78965  eV     1   --> A              
     e(  2 -  2) =    -10.09794  eV     1   --> A              
     e(  3 -  3) =     -5.54982  eV     1   --> A              
     e(  4 -  4) =     -3.90659  eV     1   --> A              
     e(  5 -  5) =     -2.23068  eV     1   --> A              
     e(  6 -  6) =     -1.79478  eV     1   --> A              
     e(  7 -  7) =      2.69856  eV     1   --> A              
     e(  8 -  8) =      3.58597  eV     1   --> A              

 **************************************************************************

 **************************************************************************

                    xk=(   0.50000,   0.28867,   0.00000  )

     Band symmetry, C_1 (1)     point group:

     e(  1 -  1) =    -11.77868  eV     1   --> A              
     e(  2 -  2) =    -10.11209  eV     1   --> A              
     e(  3 -  3) =     -5.55128  eV     1   --> A              
     e(  4 -  4) =     -3.89713  eV     1   --> A              
     e(  5 -  5) =     -2.24099  eV     1   --> A              
     e(  6 -  6) =     -1.79826  eV     1   --> A              
     e(  7 -  7) =      2.71648  eV     1   --> A              
     e(  8 -  8) =      3.57001  eV     1   --> A              

 **************************************************************************

 **************************************************************************

                    xk=(   0.50833,   0.27423,   0.00000  )

     Band symmetry, C_1 (1)     point group:

     e(  1 -  1) =    -11.77608  eV     1   --> A              
     e(  2 -  2) =    -10.11216  eV     1   --> A              
     e(  3 -  3) =     -5.56912  eV     1   --> A              
     e(  4 -  4) =     -3.89330  eV     1   --> A              
     e(  5 -  5) =     -2.24128  eV     1   --> A              
     e(  6 -  6) =     -1.77514  eV     1   --> A              
     e(  7 -  7) =      2.71205  eV     1   --> A              
     e(  8 -  8) =      3.57171  eV     1   --> A              

 **************************************************************************

 **************************************************************************

                    xk=(   0.51667,   0.25980,   0.00000  )

     Band symmetry, C_1 (1)     point group:

     e(  1 -  1) =    -11.76829  eV     1   --> A              
     e(  2 -  2) =    -10.11242  eV     1   --> A              
     e(  3 -  3) =     -5.62101  eV     1   --> A              
     e(  4 -  4) =     -3.88216  eV     1   --> A              
     e(  5 -  5) =     -2.24221  eV     1   --> A              
     e(  6 -  6) =     -1.70700  eV     1   --> A              
     e(  7 -  7) =      2.69742  eV     1   --> A              
     e(  8 -  8) =      3.57678  eV     1   --> A              

 **************************************************************************

 **************************************************************************

                    xk=(   0.52500,   0.24537,   0.00000  )

     Band symmetry, C_1 (1)     point group:

     e(  1 -  1) =    -11.75531  eV     1   --> A              
     e(  2 -  2) =    -10.11303  eV     1   --> A              
     e(  3 -  3) =     -5.70267  eV     1   --> A              
     e(  4 -  4) =     -3.86455  eV     1   --> A              
     e(  5 -  5) =     -2.24391  eV     1   --> A              
     e(  6 -  6) =     -1.59717  eV     1   --> A              
     e(  7 -  7) =      2.66851  eV     1   --> A              
     e(  8 -  8) =      3.51819  eV     1   --> A              

 **************************************************************************

 **************************************************************************

                    xk=(   0.53333,   0.23093,   0.00000  )

     Band symmetry, C_1 (1)     point group:

     e(  1 -  1) =    -11.73714  eV     1   --> A              
     e(  2 -  2) =    -10.11422  eV     1   --> A              
     e(  3 -  3) =     -5.80829  eV     1   --> A              
     e(  4 -  4) =     -3.84141  eV     1   --> A              
     e(  5 -  5) =     -2.24662  eV     1   --> A              
     e(  6 -  6) =     -1.45031  eV     1   --> A              
     e(  7 -  7) =      2.61897  eV     1   --> A              
     e(  8 -  8) =      3.40895  eV     1   --> A              

 **************************************************************************

 **************************************************************************

                    xk=(   0.54167,   0.21650,   0.00000  )

     Band symmetry, C_1 (1)     point group:

     e(  1 -  1) =    -11.71378  eV     1   --> A              
     e(  2 -  2) =    -10.11635  eV     1   --> A              
     e(  3 -  3) =     -5.93171  eV     1   --> A              
     e(  4 -  4) =     -3.81346  eV     1   --> A              
     e(  5 -  5) =     -2.25066  eV     1   --> A              
     e(  6 -  6) =     -1.27155  eV     1   --> A              
     e(  7 -  7) =      2.54281  eV     1   --> A              
     e(  8 -  8) =      3.32368  eV     1   --> A              

 **************************************************************************

 **************************************************************************

                    xk=(   0.55000,   0.20207,   0.00000  )

     Band symmetry, C_1 (1)     point group:

     e(  1 -  1) =    -11.68525  eV     1   --> A              
     e(  2 -  2) =    -10.11987  eV     1   --> A              
     e(  3 -  3) =     -6.06721  eV     1   --> A              
     e(  4 -  4) =     -3.78115  eV     1   --> A              
     e(  5 -  5) =     -2.25645  eV     1   --> A              
     e(  6 -  6) =     -1.06583  eV     1   --> A              
     e(  7 -  7) =      2.43921  eV     1   --> A              
     e(  8 -  8) =      3.26905  eV     1   --> A              

 **************************************************************************

 **************************************************************************

                    xk=(   0.55833,   0.18763,   0.00000  )

     Band symmetry, C_1 (1)     point group:

     e(  1 -  1) =    -11.65154  eV     1   --> A              
     e(  2 -  2) =    -10.12536  eV     1   --> A              
     e(  3 -  3) =     -6.20974  eV     1   --> A              
     e(  4 -  4) =     -3.74466  eV     1   --> A              
     e(  5 -  5) =     -2.26451  eV     1   --> A              
     e(  6 -  6) =     -0.83749  eV     1   --> A              
     e(  7 -  7) =      2.31416  eV     1   --> A              
     e(  8 -  8) =      3.24272  eV     1   --> A              

 **************************************************************************

 **************************************************************************

                    xk=(   0.56667,   0.17320,   0.00000  )

     Band symmetry, C_1 (1)     point group:

     e(  1 -  1) =    -11.61265  eV     1   --> A              
     e(  2 -  2) =    -10.13352  eV     1   --> A              
     e(  3 -  3) =     -6.35503  eV     1   --> A              
     e(  4 -  4) =     -3.70402  eV     1   --> A              
     e(  5 -  5) =     -2.27545  eV     1   --> A              
     e(  6 -  6) =     -0.59023  eV     1   --> A              
     e(  7 -  7) =      2.17667  eV     1   --> A              
     e(  8 -  8) =      3.23819  eV     1   --> A              

 **************************************************************************

 **************************************************************************

                    xk=(   0.57500,   0.15877,   0.00000  )

     Band symmetry, C_1 (1)     point group:

     e(  1 -  1) =    -11.56861  eV     1   --> A              
     e(  2 -  2) =    -10.14515  eV     1   --> A              
     e(  3 -  3) =     -6.49942  eV     1   --> A              
     e(  4 -  4) =     -3.65920  eV     1   --> A              
     e(  5 -  5) =     -2.28995  eV     1   --> A              
     e(  6 -  6) =     -0.32710  eV     1   --> A              
     e(  7 -  7) =      2.03485  eV     1   --> A              
     e(  8 -  8) =      3.24919  eV     1   --> A              

 **************************************************************************

 **************************************************************************

                    xk=(   0.58333,   0.14433,   0.00000  )

     Band symmetry, C_1 (1)     point group:

     e(  1 -  1) =    -11.51942  eV     1   --> A              
     e(  2 -  2) =    -10.16116  eV     1   --> A              
     e(  3 -  3) =     -6.63978  eV     1   --> A              
     e(  4 -  4) =     -3.61013  eV     1   --> A              
     e(  5 -  5) =     -2.30879  eV     1   --> A              
     e(  6 -  6) =     -0.05060  eV     1   --> A              
     e(  7 -  7) =      1.89472  eV     1   --> A              
     e(  8 -  8) =      3.27102  eV     1   --> A              

 **************************************************************************

 **************************************************************************

                    xk=(   0.59167,   0.12990,   0.00000  )

     Band symmetry, C_1 (1)     point group:

     e(  1 -  1) =    -11.46508  eV     1   --> A              
     e(  2 -  2) =    -10.18255  eV     1   --> A              
     e(  3 -  3) =     -6.77339  eV     1   --> A              
     e(  4 -  4) =     -3.55675  eV     1   --> A              
     e(  5 -  5) =     -2.33275  eV     1   --> A              
     e(  6 -  6) =      0.23717  eV     1   --> A              
     e(  7 -  7) =      1.76055  eV     1   --> A              
     e(  8 -  8) =      3.30024  eV     1   --> A              

 **************************************************************************

 **************************************************************************

                    xk=(   0.60000,   0.11547,   0.00000  )

     Band symmetry, C_1 (1)     point group:

     e(  1 -  1) =    -11.40561  eV     1   --> A              
     e(  2 -  2) =    -10.21036  eV     1   --> A              
     e(  3 -  3) =     -6.89786  eV     1   --> A              
     e(  4 -  4) =     -3.49900  eV     1   --> A              
     e(  5 -  5) =     -2.36266  eV     1   --> A              
     e(  6 -  6) =      0.53441  eV     1   --> A              
     e(  7 -  7) =      1.63547  eV     1   --> A              
     e(  8 -  8) =      3.33404  eV     1   --> A              

 **************************************************************************

 **************************************************************************

                    xk=(   0.60833,   0.10103,   0.00000  )

     Band symmetry, C_1 (1)     point group:

     e(  1 -  1) =    -11.34102  eV     1   --> A              
     e(  2 -  2) =    -10.24561  eV     1   --> A              
     e(  3 -  3) =     -7.01109  eV     1   --> A              
     e(  4 -  4) =     -3.43683  eV     1   --> A              
     e(  5 -  5) =     -2.39928  eV     1   --> A              
     e(  6 -  6) =      0.83947  eV     1   --> A              
     e(  7 -  7) =      1.52180  eV     1   --> A              
     e(  8 -  8) =      3.36956  eV     1   --> A              

 **************************************************************************

 **************************************************************************

                    xk=(   0.61667,   0.08660,   0.00000  )

     Band symmetry, C_1 (1)     point group:

     e(  1 -  1) =    -11.27133  eV     1   --> A              
     e(  2 -  2) =    -10.28922  eV     1   --> A              
     e(  3 -  3) =     -7.11134  eV     1   --> A              
     e(  4 -  4) =     -3.37022  eV     1   --> A              
     e(  5 -  5) =     -2.44330  eV     1   --> A              
     e(  6 -  6) =      1.15065  eV     1   --> A              
     e(  7 -  7) =      1.42129  eV     1   --> A              
     e(  8 -  8) =      3.40331  eV     1   --> A              

 **************************************************************************

 **************************************************************************

                    xk=(   0.62500,   0.07217,   0.00000  )

     Band symmetry, C_1 (1)     point group:

     e(  1 -  1) =    -11.19654  eV     1   --> A              
     e(  2 -  2) =    -10.34193  eV     1   --> A              
     e(  3 -  3) =     -7.19719  eV     1   --> A              
     e(  4 -  4) =     -3.29915  eV     1   --> A              
     e(  5 -  5) =     -2.49525  eV     1   --> A              
     e(  6 -  6) =      1.33524  eV     1   --> A              
     e(  7 -  7) =      1.46602  eV     1   --> A              
     e(  8 -  8) =      3.43040  eV     1   --> A              

 **************************************************************************

 **************************************************************************

                    xk=(   0.63333,   0.05773,   0.00000  )

     Band symmetry, C_1 (1)     point group:

     e(  1 -  1) =    -11.11668  eV     1   --> A              
     e(  2 -  2) =    -10.40422  eV     1   --> A              
     e(  3 -  3) =     -7.26765  eV     1   --> A              
     e(  4 -  4) =     -3.22362  eV     1   --> A              
     e(  5 -  5) =     -2.55547  eV     1   --> A              
     e(  6 -  6) =      1.26455  eV     1   --> A              
     e(  7 -  7) =      1.78288  eV     1   --> A              
     e(  8 -  8) =      3.44381  eV     1   --> A              

 **************************************************************************

 **************************************************************************

                    xk=(   0.64167,   0.04330,   0.00000  )

     Band symmetry, C_1 (1)     point group:

     e(  1 -  1) =    -11.03177  eV     1   --> A              
     e(  2 -  2) =    -10.47623  eV     1   --> A              
     e(  3 -  3) =     -7.32213  eV     1   --> A              
     e(  4 -  4) =     -3.14365  eV     1   --> A              
     e(  5 -  5) =     -2.62407  eV     1   --> A              
     e(  6 -  6) =      1.20974  eV     1   --> A              
     e(  7 -  7) =      2.09658  eV     1   --> A              
     e(  8 -  8) =      3.38596  eV     1   --> A              

 **************************************************************************

 **************************************************************************

                    xk=(   0.65000,   0.02887,   0.00000  )

     Band symmetry, C_1 (1)     point group:

     e(  1 -  1) =    -10.94181  eV     1   --> A              
     e(  2 -  2) =    -10.55777  eV     1   --> A              
     e(  3 -  3) =     -7.36051  eV     1   --> A              
     e(  4 -  4) =     -3.05925  eV     1   --> A              
     e(  5 -  5) =     -2.70089  eV     1   --> A              
     e(  6 -  6) =      1.17096  eV     1   --> A              
     e(  7 -  7) =      2.39678  eV     1   --> A              
     e(  8 -  8) =      3.27615  eV     1   --> A              

 **************************************************************************

 **************************************************************************

                    xk=(   0.65833,   0.01443,   0.00000  )

     Band symmetry, C_1 (1)     point group:

     e(  1 -  1) =    -10.84684  eV     1   --> A              
     e(  2 -  2) =    -10.64829  eV     1   --> A              
     e(  3 -  3) =     -7.38308  eV     1   --> A              
     e(  4 -  4) =     -2.97047  eV     1   --> A              
     e(  5 -  5) =     -2.78554  eV     1   --> A              
     e(  6 -  6) =      1.14805  eV     1   --> A              
     e(  7 -  7) =      2.65116  eV     1   --> A              
     e(  8 -  8) =      3.19074  eV     1   --> A              

 **************************************************************************

 **************************************************************************

                    xk=(   0.66667,   0.00000,   0.00000  )

     Band symmetry, C_1 (1)     point group:

     e(  1 -  1) =    -10.74704  eV     1   --> A              
     e(  2 -  2) =    -10.74682  eV     1   --> A              
     e(  3 -  3) =     -7.39042  eV     1   --> A              
     e(  4 -  4) =     -2.87748  eV     1   --> A              
     e(  5 -  5) =     -2.87730  eV     1   --> A              
     e(  6 -  6) =      1.14055  eV     1   --> A              
     e(  7 -  7) =      2.75860  eV     1   --> A              
     e(  8 -  8) =      3.21992  eV     1   --> A              

 **************************************************************************

 **************************************************************************

                    xk=(   0.64706,   0.00000,   0.00000  )

     Band symmetry, C_1 (1)     point group:

     e(  1 -  1) =    -10.87202  eV     1   --> A              
     e(  2 -  2) =    -10.62307  eV     1   --> A              
     e(  3 -  3) =     -7.38073  eV     1   --> A              
     e(  4 -  4) =     -2.99365  eV     1   --> A              
     e(  5 -  5) =     -2.76245  eV     1   --> A              
     e(  6 -  6) =      1.15054  eV     1   --> A              
     e(  7 -  7) =      2.67148  eV     1   --> A              
     e(  8 -  8) =      3.07629  eV     1   --> A              

 **************************************************************************

 **************************************************************************

                    xk=(   0.62745,   0.00000,   0.00000  )

     Band symmetry, C_1 (1)     point group:

     e(  1 -  1) =    -11.00532  eV     1   --> A              
     e(  2 -  2) =    -10.49226  eV     1   --> A              
     e(  3 -  3) =     -7.35280  eV     1   --> A              
     e(  4 -  4) =     -3.11752  eV     1   --> A              
     e(  5 -  5) =     -2.64164  eV     1   --> A              
     e(  6 -  6) =      1.17952  eV     1   --> A              
     e(  7 -  7) =      2.51661  eV     1   --> A              
     e(  8 -  8) =      2.91782  eV     1   --> A              

 **************************************************************************

 **************************************************************************

                    xk=(   0.60784,   0.00000,   0.00000  )

     Band symmetry, C_1 (1)     point group:

     e(  1 -  1) =    -11.14485  eV     1   --> A              
     e(  2 -  2) =    -10.35467  eV     1   --> A              
     e(  3 -  3) =     -7.30837  eV     1   --> A              
     e(  4 -  4) =     -3.24740  eV     1   --> A              
     e(  5 -  5) =     -2.51521  eV     1   --> A              
     e(  6 -  6) =      1.22586  eV     1   --> A              
     e(  7 -  7) =      2.34753  eV     1   --> A              
     e(  8 -  8) =      2.75229  eV     1   --> A              

 **************************************************************************

 **************************************************************************

                    xk=(   0.58824,   0.00000,   0.00000  )

     Band symmetry, C_1 (1)     point group:

     e(  1 -  1) =    -11.28883  eV     1   --> A              
     e(  2 -  2) =    -10.21034  eV     1   --> A              
     e(  3 -  3) =     -7.24916  eV     1   --> A              
     e(  4 -  4) =     -3.38180  eV     1   --> A              
     e(  5 -  5) =     -2.38334  eV     1   --> A              
     e(  6 -  6) =      1.28767  eV     1   --> A              
     e(  7 -  7) =      2.17597  eV     1   --> A              
     e(  8 -  8) =      2.58478  eV     1   --> A              

 **************************************************************************

 **************************************************************************

                    xk=(   0.56863,   0.00000,   0.00000  )

     Band symmetry, C_1 (1)     point group:

     e(  1 -  1) =    -11.43564  eV     1   --> A              
     e(  2 -  2) =    -10.05934  eV     1   --> A              
     e(  3 -  3) =     -7.17678  eV     1   --> A              
     e(  4 -  4) =     -3.51928  eV     1   --> A              
     e(  5 -  5) =     -2.24627  eV     1   --> A              
     e(  6 -  6) =      1.36267  eV     1   --> A              
     e(  7 -  7) =      2.00607  eV     1   --> A              
     e(  8 -  8) =      2.41891  eV     1   --> A              

 **************************************************************************

 **************************************************************************

                    xk=(   0.54902,   0.00000,   0.00000  )

     Band symmetry, C_1 (1)     point group:

     e(  1 -  1) =    -11.58386  eV     1   --> A              
     e(  2 -  2) =     -9.90173  eV     1   --> A              
     e(  3 -  3) =     -7.09273  eV     1   --> A              
     e(  4 -  4) =     -3.65852  eV     1   --> A              
     e(  5 -  5) =     -2.10432  eV     1   --> A              
     e(  6 -  6) =      1.44759  eV     1   --> A              
     e(  7 -  7) =      1.83984  eV     1   --> A              
     e(  8 -  8) =      2.25829  eV     1   --> A              

 **************************************************************************

 **************************************************************************

                    xk=(   0.52941,   0.00000,   0.00000  )

     Band symmetry, C_1 (1)     point group:

     e(  1 -  1) =    -11.73224  eV     1   --> A              
     e(  2 -  2) =     -9.73759  eV     1   --> A              
     e(  3 -  3) =     -6.99834  eV     1   --> A              
     e(  4 -  4) =     -3.79835  eV     1   --> A              
     e(  5 -  5) =     -1.95785  eV     1   --> A              
     e(  6 -  6) =      1.53589  eV     1   --> A              
     e(  7 -  7) =      1.67849  eV     1   --> A              
     e(  8 -  8) =      2.10918  eV     1   --> A              

 **************************************************************************

 **************************************************************************

                    xk=(   0.50980,   0.00000,   0.00000  )

     Band symmetry, C_1 (1)     point group:

     e(  1 -  1) =    -11.87973  eV     1   --> A              
     e(  2 -  2) =     -9.56699  eV     1   --> A              
     e(  3 -  3) =     -6.89481  eV     1   --> A              
     e(  4 -  4) =     -3.93772  eV     1   --> A              
     e(  5 -  5) =     -1.80734  eV     1   --> A              
     e(  6 -  6) =      1.52284  eV     1   --> A              
     e(  7 -  7) =      1.60807  eV     1   --> A              
     e(  8 -  8) =      1.99048  eV     1   --> A              

 **************************************************************************

 **************************************************************************

                    xk=(   0.49020,   0.00000,   0.00000  )

     Band symmetry, C_1 (1)     point group:

     e(  1 -  1) =    -12.02542  eV     1   --> A              
     e(  2 -  2) =     -9.39003  eV     1   --> A              
     e(  3 -  3) =     -6.78325  eV     1   --> A              
     e(  4 -  4) =     -4.07573  eV     1   --> A              
     e(  5 -  5) =     -1.65338  eV     1   --> A              
     e(  6 -  6) =      1.37351  eV     1   --> A              
     e(  7 -  7) =      1.60828  eV     1   --> A              
     e(  8 -  8) =      1.95710  eV     1   --> A              

 **************************************************************************

 **************************************************************************

                    xk=(   0.47059,   0.00000,   0.00000  )

     Band symmetry, C_1 (1)     point group:

     e(  1 -  1) =    -12.16856  eV     1   --> A              
     e(  2 -  2) =     -9.20682  eV     1   --> A              
     e(  3 -  3) =     -6.66464  eV     1   --> A              
     e(  4 -  4) =     -4.21158  eV     1   --> A              
     e(  5 -  5) =     -1.49673  eV     1   --> A              
     e(  6 -  6) =      1.23098  eV     1   --> A              
     e(  7 -  7) =      1.51612  eV     1   --> A              
     e(  8 -  8) =      2.02809  eV     1   --> A              

 **************************************************************************

 **************************************************************************

                    xk=(   0.45098,   0.00000,   0.00000  )

     Band symmetry, C_1 (1)     point group:

     e(  1 -  1) =    -12.30853  eV     1   --> A              
     e(  2 -  2) =     -9.01748  eV     1   --> A              
     e(  3 -  3) =     -6.53993  eV     1   --> A              
     e(  4 -  4) =     -4.34459  eV     1   --> A              
     e(  5 -  5) =     -1.33838  eV     1   --> A              
     e(  6 -  6) =      1.09568  eV     1   --> A              
     e(  7 -  7) =      1.38933  eV     1   --> A              
     e(  8 -  8) =      2.14374  eV     1   --> A              

 **************************************************************************

 **************************************************************************

                    xk=(   0.43137,   0.00000,   0.00000  )

     Band symmetry, C_1 (1)     point group:

     e(  1 -  1) =    -12.44477  eV     1   --> A              
     e(  2 -  2) =     -8.82215  eV     1   --> A              
     e(  3 -  3) =     -6.41001  eV     1   --> A              
     e(  4 -  4) =     -4.47417  eV     1   --> A              
     e(  5 -  5) =     -1.17962  eV     1   --> A              
     e(  6 -  6) =      0.96797  eV     1   --> A              
     e(  7 -  7) =      1.25539  eV     1   --> A              
     e(  8 -  8) =      2.02807  eV     1   --> A              

 **************************************************************************

 **************************************************************************

                    xk=(   0.41176,   0.00000,   0.00000  )

     Band symmetry, C_1 (1)     point group:

     e(  1 -  1) =    -12.57683  eV     1   --> A              
     e(  2 -  2) =     -8.62099  eV     1   --> A              
     e(  3 -  3) =     -6.27575  eV     1   --> A              
     e(  4 -  4) =     -4.59979  eV     1   --> A              
     e(  5 -  5) =     -1.02213  eV     1   --> A              
     e(  6 -  6) =      0.84819  eV     1   --> A              
     e(  7 -  7) =      1.12196  eV     1   --> A              
     e(  8 -  8) =      1.90680  eV     1   --> A              

 **************************************************************************

 **************************************************************************

                    xk=(   0.39216,   0.00000,   0.00000  )

     Band symmetry, C_1 (1)     point group:

     e(  1 -  1) =    -12.70434  eV     1   --> A              
     e(  2 -  2) =     -8.41421  eV     1   --> A              
     e(  3 -  3) =     -6.13802  eV     1   --> A              
     e(  4 -  4) =     -4.72099  eV     1   --> A              
     e(  5 -  5) =     -0.86813  eV     1   --> A              
     e(  6 -  6) =      0.73666  eV     1   --> A              
     e(  7 -  7) =      0.99164  eV     1   --> A              
     e(  8 -  8) =      1.79982  eV     1   --> A              

 **************************************************************************

 **************************************************************************

                    xk=(   0.37255,   0.00000,   0.00000  )

     Band symmetry, C_1 (1)     point group:

     e(  1 -  1) =    -12.82697  eV     1   --> A              
     e(  2 -  2) =     -8.20205  eV     1   --> A              
     e(  3 -  3) =     -5.99770  eV     1   --> A              
     e(  4 -  4) =     -4.83733  eV     1   --> A              
     e(  5 -  5) =     -0.72046  eV     1   --> A              
     e(  6 -  6) =      0.63362  eV     1   --> A              
     e(  7 -  7) =      0.86554  eV     1   --> A              
     e(  8 -  8) =      1.70980  eV     1   --> A              

 **************************************************************************

 **************************************************************************

                    xk=(   0.35294,   0.00000,   0.00000  )

     Band symmetry, C_1 (1)     point group:

     e(  1 -  1) =    -12.94443  eV     1   --> A              
     e(  2 -  2) =     -7.98482  eV     1   --> A              
     e(  3 -  3) =     -5.85567  eV     1   --> A              
     e(  4 -  4) =     -4.94841  eV     1   --> A              
     e(  5 -  5) =     -0.58271  eV     1   --> A              
     e(  6 -  6) =      0.53928  eV     1   --> A              
     e(  7 -  7) =      0.74418  eV     1   --> A              
     e(  8 -  8) =      1.64001  eV     1   --> A              

 **************************************************************************

 **************************************************************************

                    xk=(   0.33333,   0.00000,   0.00000  )

     Band symmetry, C_1 (1)     point group:

     e(  1 -  1) =    -13.05648  eV     1   --> A              
     e(  2 -  2) =     -7.76290  eV     1   --> A              
     e(  3 -  3) =     -5.71288  eV     1   --> A              
     e(  4 -  4) =     -5.05381  eV     1   --> A              
     e(  5 -  5) =     -0.45907  eV     1   --> A              
     e(  6 -  6) =      0.45373  eV     1   --> A              
     e(  7 -  7) =      0.62785  eV     1   --> A              
     e(  8 -  8) =      1.59416  eV     1   --> A              

 **************************************************************************

 **************************************************************************

                    xk=(   0.31373,   0.00000,   0.00000  )

     Band symmetry, C_1 (1)     point group:

     e(  1 -  1) =    -13.16293  eV     1   --> A              
     e(  2 -  2) =     -7.53680  eV     1   --> A              
     e(  3 -  3) =     -5.57031  eV     1   --> A              
     e(  4 -  4) =     -5.15307  eV     1   --> A              
     e(  5 -  5) =     -0.35380  eV     1   --> A              
     e(  6 -  6) =      0.37686  eV     1   --> A              
     e(  7 -  7) =      0.51664  eV     1   --> A              
     e(  8 -  8) =      1.57592  eV     1   --> A              

 **************************************************************************

 **************************************************************************

                    xk=(   0.29412,   0.00000,   0.00000  )

     Band symmetry, C_1 (1)     point group:

     e(  1 -  1) =    -13.26359  eV     1   --> A              
     e(  2 -  2) =     -7.30726  eV     1   --> A              
     e(  3 -  3) =     -5.42897  eV     1   --> A              
     e(  4 -  4) =     -5.24561  eV     1   --> A              
     e(  5 -  5) =     -0.27024  eV     1   --> A              
     e(  6 -  6) =      0.30831  eV     1   --> A              
     e(  7 -  7) =      0.41056  eV     1   --> A              
     e(  8 -  8) =      1.58776  eV     1   --> A              

 **************************************************************************

 **************************************************************************

                    xk=(   0.27451,   0.00000,   0.00000  )

     Band symmetry, C_1 (1)     point group:

     e(  1 -  1) =    -13.35832  eV     1   --> A              
     e(  2 -  2) =     -7.07532  eV     1   --> A              
     e(  3 -  3) =     -5.33061  eV     1   --> A              
     e(  4 -  4) =     -5.28995  eV     1   --> A              
     e(  5 -  5) =     -0.20954  eV     1   --> A              
     e(  6 -  6) =      0.24744  eV     1   --> A              
     e(  7 -  7) =      0.30947  eV     1   --> A              
     e(  8 -  8) =      1.62934  eV     1   --> A              

 **************************************************************************

 **************************************************************************

                    xk=(   0.25490,   0.00000,   0.00000  )

     Band symmetry, C_1 (1)     point group:

     e(  1 -  1) =    -13.44697  eV     1   --> A              
     e(  2 -  2) =     -6.84269  eV     1   --> A              
     e(  3 -  3) =     -5.40673  eV     1   --> A              
     e(  4 -  4) =     -5.15434  eV     1   --> A              
     e(  5 -  5) =     -0.16997  eV     1   --> A              
     e(  6 -  6) =      0.19340  eV     1   --> A              
     e(  7 -  7) =      0.21313  eV     1   --> A              
     e(  8 -  8) =      1.69602  eV     1   --> A              

 **************************************************************************

 **************************************************************************

                    xk=(   0.23529,   0.00000,   0.00000  )

     Band symmetry, C_1 (1)     point group:

     e(  1 -  1) =    -13.52943  eV     1   --> A              
     e(  2 -  2) =     -6.61240  eV     1   --> A              
     e(  3 -  3) =     -5.47144  eV     1   --> A              
     e(  4 -  4) =     -5.02331  eV     1   --> A              
     e(  5 -  5) =     -0.14759  eV     1   --> A              
     e(  6 -  6) =      0.12110  eV     1   --> A              
     e(  7 -  7) =      0.14555  eV     1   --> A              
     e(  8 -  8) =      1.77746  eV     1   --> A              

 **************************************************************************

 **************************************************************************

                    xk=(   0.21569,   0.00000,   0.00000  )

     Band symmetry, C_1 (1)     point group:

     e(  1 -  1) =    -13.60561  eV     1   --> A              
     e(  2 -  2) =     -6.39062  eV     1   --> A              
     e(  3 -  3) =     -5.51929  eV     1   --> A              
     e(  4 -  4) =     -4.89800  eV     1   --> A              
     e(  5 -  5) =     -0.13789  eV     1   --> A              
     e(  6 -  6) =      0.03271  eV     1   --> A              
     e(  7 -  7) =      0.10388  eV     1   --> A              
     e(  8 -  8) =      1.85551  eV     1   --> A              

 **************************************************************************

 **************************************************************************

                    xk=(   0.19608,   0.00000,   0.00000  )

     Band symmetry, C_1 (1)     point group:

     e(  1 -  1) =    -13.67542  eV     1   --> A              
     e(  2 -  2) =     -6.19134  eV     1   --> A              
     e(  3 -  3) =     -5.53721  eV     1   --> A              
     e(  4 -  4) =     -4.77956  eV     1   --> A              
     e(  5 -  5) =     -0.13741  eV     1   --> A              
     e(  6 -  6) =     -0.05308  eV     1   --> A              
     e(  7 -  7) =      0.06939  eV     1   --> A              
     e(  8 -  8) =      1.81331  eV     1   --> A              

 **************************************************************************

 **************************************************************************

                    xk=(   0.17647,   0.00000,   0.00000  )

     Band symmetry, C_1 (1)     point group:

     e(  1 -  1) =    -13.73878  eV     1   --> A              
     e(  2 -  2) =     -6.04381  eV     1   --> A              
     e(  3 -  3) =     -5.49723  eV     1   --> A              
     e(  4 -  4) =     -4.66910  eV     1   --> A              
     e(  5 -  5) =     -0.14439  eV     1   --> A              
     e(  6 -  6) =     -0.13789  eV     1   --> A              
     e(  7 -  7) =      0.04394  eV     1   --> A              
     e(  8 -  8) =      1.51535  eV     1   --> A              

 **************************************************************************

 **************************************************************************

                    xk=(   0.15686,   0.00000,   0.00000  )

     Band symmetry, C_1 (1)     point group:

     e(  1 -  1) =    -13.79563  eV     1   --> A              
     e(  2 -  2) =     -5.97422  eV     1   --> A              
     e(  3 -  3) =     -5.37494  eV     1   --> A              
     e(  4 -  4) =     -4.56765  eV     1   --> A              
     e(  5 -  5) =     -0.22412  eV     1   --> A              
     e(  6 -  6) =     -0.15794  eV     1   --> A              
     e(  7 -  7) =      0.02914  eV     1   --> A              
     e(  8 -  8) =      1.21383  eV     1   --> A              

 **************************************************************************

 **************************************************************************

                    xk=(   0.13725,   0.00000,   0.00000  )

     Band symmetry, C_1 (1)     point group:

     e(  1 -  1) =    -13.84591  eV     1   --> A              
     e(  2 -  2) =     -5.96217  eV     1   --> A              
     e(  3 -  3) =     -5.19312  eV     1   --> A              
     e(  4 -  4) =     -4.47616  eV     1   --> A              
     e(  5 -  5) =     -0.31521  eV     1   --> A              
     e(  6 -  6) =     -0.17651  eV     1   --> A              
     e(  7 -  7) =      0.02483  eV     1   --> A              
     e(  8 -  8) =      0.93524  eV     1   --> A              

 **************************************************************************

 **************************************************************************

                    xk=(   0.11765,   0.00000,   0.00000  )

     Band symmetry, C_1 (1)     point group:

     e(  1 -  1) =    -13.88958  eV     1   --> A              
     e(  2 -  2) =     -5.97415  eV     1   --> A              
     e(  3 -  3) =     -4.98861  eV     1   --> A              
     e(  4 -  4) =     -4.39545  eV     1   --> A              
     e(  5 -  5) =     -0.41533  eV     1   --> A              
     e(  6 -  6) =     -0.19755  eV     1   --> A              
     e(  7 -  7) =      0.02893  eV     1   --> A              
     e(  8 -  8) =      0.68898  eV     1   --> A              

 **************************************************************************

 **************************************************************************

                    xk=(   0.09804,   0.00000,   0.00000  )

     Band symmetry, C_1 (1)     point group:

     e(  1 -  1) =    -13.92659  eV     1   --> A              
     e(  2 -  2) =     -5.99325  eV     1   --> A              
     e(  3 -  3) =     -4.78292  eV     1   --> A              
     e(  4 -  4) =     -4.32618  eV     1   --> A              
     e(  5 -  5) =     -0.52774  eV     1   --> A              
     e(  6 -  6) =     -0.21853  eV     1   --> A              
     e(  7 -  7) =      0.03856  eV     1   --> A              
     e(  8 -  8) =      0.48372  eV     1   --> A              

 **************************************************************************

 **************************************************************************

                    xk=(   0.07843,   0.00000,   0.00000  )

     Band symmetry, C_1 (1)     point group:

     e(  1 -  1) =    -13.95691  eV     1   --> A              
     e(  2 -  2) =     -6.01261  eV     1   --> A              
     e(  3 -  3) =     -4.58923  eV     1   --> A              
     e(  4 -  4) =     -4.26890  eV     1   --> A              
     e(  5 -  5) =     -0.65094  eV     1   --> A              
     e(  6 -  6) =     -0.23751  eV     1   --> A              
     e(  7 -  7) =      0.05089  eV     1   --> A              
     e(  8 -  8) =      0.32483  eV     1   --> A              

 **************************************************************************

 **************************************************************************

                    xk=(   0.05882,   0.00000,   0.00000  )

     Band symmetry, C_1 (1)     point group:

     e(  1 -  1) =    -13.98052  eV     1   --> A              
     e(  2 -  2) =     -6.02927  eV     1   --> A              
     e(  3 -  3) =     -4.41891  eV     1   --> A              
     e(  4 -  4) =     -4.22400  eV     1   --> A              
     e(  5 -  5) =     -0.77532  eV     1   --> A              
     e(  6 -  6) =     -0.25325  eV     1   --> A              
     e(  7 -  7) =      0.06345  eV     1   --> A              
     e(  8 -  8) =      0.21146  eV     1   --> A              

 **************************************************************************

 **************************************************************************

                    xk=(   0.03922,   0.00000,   0.00000  )

     Band symmetry, C_1 (1)     point group:

     e(  1 -  1) =    -13.99740  eV     1   --> A              
     e(  2 -  2) =     -6.04183  eV     1   --> A              
     e(  3 -  3) =     -4.28389  eV     1   --> A              
     e(  4 -  4) =     -4.19176  eV     1   --> A              
     e(  5 -  5) =     -0.88420  eV     1   --> A              
     e(  6 -  6) =     -0.26494  eV     1   --> A              
     e(  7 -  7) =      0.07411  eV     1   --> A              
     e(  8 -  8) =      0.13765  eV     1   --> A              

 **************************************************************************

 **************************************************************************

                    xk=(   0.01961,   0.00000,   0.00000  )

     Band symmetry, C_1 (1)     point group:

     e(  1 -  1) =    -14.00754  eV     1   --> A              
     e(  2 -  2) =     -6.04959  eV     1   --> A              
     e(  3 -  3) =     -4.19626  eV     1   --> A              
     e(  4 -  4) =     -4.17235  eV     1   --> A              
     e(  5 -  5) =     -0.95915  eV     1   --> A              
     e(  6 -  6) =     -0.27213  eV     1   --> A              
     e(  7 -  7) =      0.08121  eV     1   --> A              
     e(  8 -  8) =      0.09653  eV     1   --> A              

 **************************************************************************

 **************************************************************************

                    xk=(   0.00000,   0.00000,   0.00000  )

     point group C_s (m)    
     there are  2 classes
     the character table:

       E     s    
A'     1.00  1.00
A''    1.00 -1.00

     the symmetry operations in each class and the name of the first element:

     E        1
                                                                 
     s        2
                                                                 

     Band symmetry, C_s (m)     point group:

     e(  1 -  1) =    -14.01092  eV     1   --> A'             
     e(  2 -  2) =     -6.05221  eV     1   --> A'             
     e(  3 -  3) =     -4.16588  eV     1   --> A'             
     e(  4 -  4) =     -4.16577  eV     1   --> A''            
     e(  5 -  5) =     -0.98593  eV     1   --> A'             
     e(  6 -  6) =     -0.27455  eV     1   --> A'             
     e(  7 -  7) =      0.08337  eV     1   --> A'             
     e(  8 -  8) =      0.08370  eV     1   --> A''            

 **************************************************************************

     BANDS        :     37.21s CPU     28.63s WALL


   This run was terminated on:  12:18:15  13Jul2023            

=------------------------------------------------------------------------------=
   JOB DONE.
=------------------------------------------------------------------------------=
