
     Program PWSCF v.7.0 starts on 13Jul2023 at 12: 7:22 

     This program is part of the open-source Quantum ESPRESSO suite
     for quantum simulation of materials; please cite
         "P. Giannozzi et al., J. Phys.:Condens. Matter 21 395502 (2009);
         "P. Giannozzi et al., J. Phys.:Condens. Matter 29 465901 (2017);
         "P. Giannozzi et al., J. Chem. Phys. 152 154105 (2020);
          URL http://www.quantum-espresso.org", 
     in publications or presentations arising from this work. More details at
     http://www.quantum-espresso.org/quote

     Parallel version (MPI & OpenMP), running on       2 processor cores
     Number of MPI processes:                 1
     Threads/MPI process:                     2

     MPI processes distributed on     1 nodes
     86848 MiB available memory on the printing compute node when the environment starts

     Waiting for input...
     Reading input from standard input

     Current dimensions of program PWSCF are:
     Max number of different atomic species (ntypx) = 10
     Max number of k-points (npk) =  40000
     Max angular momentum in pseudopotentials (lmaxx) =  4

     Atomic positions and unit cell read from directory:
     ./silicene_bands.save/
     Atomic positions from file used, from input discarded

     file Si.pbe-n-kjpaw_psl.1.0.0.UPF: wavefunction(s)  3S 3P renormalized

     Subspace diagonalization in iterative solution of the eigenvalue problem:
     a serial algorithm will be used


     G-vector sticks info
     --------------------
     sticks:   dense  smooth     PW     G-vecs:    dense   smooth      PW
     Sum        1813     745    211               328517    83451   13117

     Using Slab Decomposition



     bravais-lattice index     =           -9
     lattice parameter (alat)  =       7.2962  a.u.
     unit-cell volume          =    1742.4604 (a.u.)^3
     number of atoms/cell      =            2
     number of atomic types    =            1
     number of electrons       =         8.00
     number of Kohn-Sham states=            8
     kinetic-energy cutoff     =      50.0000  Ry
     charge density cutoff     =     500.0000  Ry
     Exchange-correlation= SLA  PW   PBX  PBC
                           (   1   4   3   4   0   0   0)

     celldm(1)=   7.296200  celldm(2)=   1.732100  celldm(3)=   5.180000
     celldm(4)=   0.000000  celldm(5)=   0.000000  celldm(6)=   0.000000

     crystal axes: (cart. coord. in units of alat)
               a(1) = (   0.500000  -0.866050   0.000000 )  
               a(2) = (   0.500000   0.866050   0.000000 )  
               a(3) = (   0.000000   0.000000   5.180000 )  

     reciprocal axes: (cart. coord. in units 2 pi/alat)
               b(1) = (  1.000000 -0.577334  0.000000 )  
               b(2) = (  1.000000  0.577334 -0.000000 )  
               b(3) = ( -0.000000  0.000000  0.193050 )  


     PseudoPot. # 1 for Si read from file:
     ../pseudos/Si.pbe-n-kjpaw_psl.1.0.0.UPF
     MD5 check sum: c39c59da582df4a0d9f10159256ea34e
     Pseudo is Projector augmented-wave + core cor, Zval =  4.0
     Generated using &quot;atomic&quot; code by A. Dal Corso  v.6.3
     Shape of augmentation charge: PSQ
     Using radial grid of 1141 points,  6 beta functions with: 
                l(1) =   0
                l(2) =   0
                l(3) =   1
                l(4) =   1
                l(5) =   2
                l(6) =   2
     Q(r) pseudized with 0 coefficients 


     atomic species   valence    mass     pseudopotential
        Si             4.00    28.08550     Si( 1.00)

      2 Sym. Ops. (no inversion) found



   Cartesian axes

     site n.     atom                  positions (alat units)
         1           Si  tau(   1) = (   0.5000000  -0.2886833   2.0476077  )
         2           Si  tau(   2) = (   0.5000000   0.2886833   2.1611423  )

     number of k points=    95
                       cart. coord. in units 2pi/alat
        k(    1) = (   0.0000000   0.0000000   0.0000000), wk =   0.0210526
        k(    2) = (   0.0125000   0.0072167   0.0000000), wk =   0.0210526
        k(    3) = (   0.0250000   0.0144333   0.0000000), wk =   0.0210526
        k(    4) = (   0.0375000   0.0216500   0.0000000), wk =   0.0210526
        k(    5) = (   0.0500000   0.0288667   0.0000000), wk =   0.0210526
        k(    6) = (   0.0625000   0.0360834   0.0000000), wk =   0.0210526
        k(    7) = (   0.0750000   0.0433000   0.0000000), wk =   0.0210526
        k(    8) = (   0.0875000   0.0505167   0.0000000), wk =   0.0210526
        k(    9) = (   0.1000000   0.0577334   0.0000000), wk =   0.0210526
        k(   10) = (   0.1125000   0.0649501   0.0000000), wk =   0.0210526
        k(   11) = (   0.1250000   0.0721667   0.0000000), wk =   0.0210526
        k(   12) = (   0.1375000   0.0793834   0.0000000), wk =   0.0210526
        k(   13) = (   0.1500000   0.0866001   0.0000000), wk =   0.0210526
        k(   14) = (   0.1625000   0.0938168   0.0000000), wk =   0.0210526
        k(   15) = (   0.1750000   0.1010334   0.0000000), wk =   0.0210526
        k(   16) = (   0.1875000   0.1082501   0.0000000), wk =   0.0210526
        k(   17) = (   0.2000000   0.1154668   0.0000000), wk =   0.0210526
        k(   18) = (   0.2125000   0.1226834   0.0000000), wk =   0.0210526
        k(   19) = (   0.2250000   0.1299001   0.0000000), wk =   0.0210526
        k(   20) = (   0.2375000   0.1371168   0.0000000), wk =   0.0210526
        k(   21) = (   0.2500000   0.1443335   0.0000000), wk =   0.0210526
        k(   22) = (   0.2625000   0.1515501   0.0000000), wk =   0.0210526
        k(   23) = (   0.2750000   0.1587668   0.0000000), wk =   0.0210526
        k(   24) = (   0.2875000   0.1659835   0.0000000), wk =   0.0210526
        k(   25) = (   0.3000000   0.1732002   0.0000000), wk =   0.0210526
        k(   26) = (   0.3125000   0.1804168   0.0000000), wk =   0.0210526
        k(   27) = (   0.3250000   0.1876335   0.0000000), wk =   0.0210526
        k(   28) = (   0.3375000   0.1948502   0.0000000), wk =   0.0210526
        k(   29) = (   0.3500000   0.2020669   0.0000000), wk =   0.0210526
        k(   30) = (   0.3625000   0.2092835   0.0000000), wk =   0.0210526
        k(   31) = (   0.3750000   0.2165002   0.0000000), wk =   0.0210526
        k(   32) = (   0.3875000   0.2237169   0.0000000), wk =   0.0210526
        k(   33) = (   0.4000000   0.2309335   0.0000000), wk =   0.0210526
        k(   34) = (   0.4125000   0.2381502   0.0000000), wk =   0.0210526
        k(   35) = (   0.4250000   0.2453669   0.0000000), wk =   0.0210526
        k(   36) = (   0.4375000   0.2525836   0.0000000), wk =   0.0210526
        k(   37) = (   0.4500000   0.2598002   0.0000000), wk =   0.0210526
        k(   38) = (   0.4625000   0.2670169   0.0000000), wk =   0.0210526
        k(   39) = (   0.4750000   0.2742336   0.0000000), wk =   0.0210526
        k(   40) = (   0.4875000   0.2814503   0.0000000), wk =   0.0210526
        k(   41) = (   0.5000000   0.2886669   0.0000000), wk =   0.0210526
        k(   42) = (   0.5083333   0.2742336   0.0000000), wk =   0.0210526
        k(   43) = (   0.5166667   0.2598002   0.0000000), wk =   0.0210526
        k(   44) = (   0.5250000   0.2453669   0.0000000), wk =   0.0210526
        k(   45) = (   0.5333333   0.2309335   0.0000000), wk =   0.0210526
        k(   46) = (   0.5416667   0.2165002   0.0000000), wk =   0.0210526
        k(   47) = (   0.5500000   0.2020669   0.0000000), wk =   0.0210526
        k(   48) = (   0.5583333   0.1876335   0.0000000), wk =   0.0210526
        k(   49) = (   0.5666667   0.1732002   0.0000000), wk =   0.0210526
        k(   50) = (   0.5750000   0.1587668   0.0000000), wk =   0.0210526
        k(   51) = (   0.5833333   0.1443335   0.0000000), wk =   0.0210526
        k(   52) = (   0.5916667   0.1299001   0.0000000), wk =   0.0210526
        k(   53) = (   0.6000000   0.1154668   0.0000000), wk =   0.0210526
        k(   54) = (   0.6083333   0.1010334   0.0000000), wk =   0.0210526
        k(   55) = (   0.6166667   0.0866001   0.0000000), wk =   0.0210526
        k(   56) = (   0.6250000   0.0721667   0.0000000), wk =   0.0210526
        k(   57) = (   0.6333333   0.0577334   0.0000000), wk =   0.0210526
        k(   58) = (   0.6416667   0.0433000   0.0000000), wk =   0.0210526
        k(   59) = (   0.6500000   0.0288667   0.0000000), wk =   0.0210526
        k(   60) = (   0.6583333   0.0144333   0.0000000), wk =   0.0210526
        k(   61) = (   0.6666667   0.0000000   0.0000000), wk =   0.0210526
        k(   62) = (   0.6470588   0.0000000   0.0000000), wk =   0.0210526
        k(   63) = (   0.6274510   0.0000000   0.0000000), wk =   0.0210526
        k(   64) = (   0.6078431   0.0000000   0.0000000), wk =   0.0210526
        k(   65) = (   0.5882353   0.0000000   0.0000000), wk =   0.0210526
        k(   66) = (   0.5686275   0.0000000   0.0000000), wk =   0.0210526
        k(   67) = (   0.5490196   0.0000000   0.0000000), wk =   0.0210526
        k(   68) = (   0.5294118   0.0000000   0.0000000), wk =   0.0210526
        k(   69) = (   0.5098039   0.0000000   0.0000000), wk =   0.0210526
        k(   70) = (   0.4901961   0.0000000   0.0000000), wk =   0.0210526
        k(   71) = (   0.4705882   0.0000000   0.0000000), wk =   0.0210526
        k(   72) = (   0.4509804   0.0000000   0.0000000), wk =   0.0210526
        k(   73) = (   0.4313725   0.0000000   0.0000000), wk =   0.0210526
        k(   74) = (   0.4117647   0.0000000   0.0000000), wk =   0.0210526
        k(   75) = (   0.3921569   0.0000000   0.0000000), wk =   0.0210526
        k(   76) = (   0.3725490   0.0000000   0.0000000), wk =   0.0210526
        k(   77) = (   0.3529412   0.0000000   0.0000000), wk =   0.0210526
        k(   78) = (   0.3333333   0.0000000   0.0000000), wk =   0.0210526
        k(   79) = (   0.3137255   0.0000000   0.0000000), wk =   0.0210526
        k(   80) = (   0.2941176   0.0000000   0.0000000), wk =   0.0210526
        k(   81) = (   0.2745098   0.0000000   0.0000000), wk =   0.0210526
        k(   82) = (   0.2549020   0.0000000   0.0000000), wk =   0.0210526
        k(   83) = (   0.2352941   0.0000000   0.0000000), wk =   0.0210526
        k(   84) = (   0.2156863   0.0000000   0.0000000), wk =   0.0210526
        k(   85) = (   0.1960784   0.0000000   0.0000000), wk =   0.0210526
        k(   86) = (   0.1764706   0.0000000   0.0000000), wk =   0.0210526
        k(   87) = (   0.1568627   0.0000000   0.0000000), wk =   0.0210526
        k(   88) = (   0.1372549   0.0000000   0.0000000), wk =   0.0210526
        k(   89) = (   0.1176471   0.0000000   0.0000000), wk =   0.0210526
        k(   90) = (   0.0980392   0.0000000   0.0000000), wk =   0.0210526
        k(   91) = (   0.0784314   0.0000000   0.0000000), wk =   0.0210526
        k(   92) = (   0.0588235   0.0000000   0.0000000), wk =   0.0210526
        k(   93) = (   0.0392157   0.0000000   0.0000000), wk =   0.0210526
        k(   94) = (   0.0196078   0.0000000   0.0000000), wk =   0.0210526
        k(   95) = (   0.0000000   0.0000000   0.0000000), wk =   0.0210526

     Dense  grid:   328517 G-vectors     FFT dimensions: (  54,  54, 270)

     Smooth grid:    83451 G-vectors     FFT dimensions: (  36,  36, 180)

     Estimated max dynamical RAM per process >       1.02 GB

     The potential is recalculated from file :
     ./silicene_bands.save/charge-density


     negative rho (up, down):  1.127E-05 0.000E+00
     Starting wfcs are    8 randomized atomic wfcs
     Checking if some PAW data can be deallocated... 

     Band Structure Calculation
     Davidson diagonalization with overlap
     c_bands:  1 eigenvalues not converged
     c_bands:  1 eigenvalues not converged
     c_bands:  1 eigenvalues not converged

     ethr =  1.25E-10,  avg # of iterations = 63.5

     total cpu time spent up to now is      580.6 secs

     End of band structure calculation

          k = 0.0000 0.0000 0.0000 ( 10447 PWs)   bands (ev):

   -14.0109  -6.0522  -4.1659  -4.1658  -0.9859  -0.2745   0.0834   0.0837

          k = 0.0125 0.0072 0.0000 ( 10435 PWs)   bands (ev):

   -14.0091  -6.0508  -4.1824  -4.1694  -0.9713  -0.2732   0.0823   0.0905

          k = 0.0250 0.0144 0.0000 ( 10441 PWs)   bands (ev):

   -14.0036  -6.0466  -4.2311  -4.1798  -0.9291  -0.2693   0.0791   0.1116

          k = 0.0375 0.0217 0.0000 ( 10433 PWs)   bands (ev):

   -13.9944  -6.0396  -4.3090  -4.1969  -0.8641  -0.2629   0.0762   0.1464

          k = 0.0500 0.0289 0.0000 ( 10417 PWs)   bands (ev):

   -13.9816  -6.0301  -4.4116  -4.2204  -0.7845  -0.2540   0.0781   0.1947

          k = 0.0625 0.0361 0.0000 ( 10407 PWs)   bands (ev):

   -13.9652  -6.0183  -4.5345  -4.2498  -0.7012  -0.2427   0.0921   0.2558

          k = 0.0750 0.0433 0.0000 ( 10415 PWs)   bands (ev):

   -13.9451  -6.0048  -4.6728  -4.2844  -0.6284  -0.2291   0.1286   0.3293

          k = 0.0875 0.0505 0.0000 ( 10387 PWs)   bands (ev):

   -13.9214  -5.9903  -4.8222  -4.3237  -0.5798  -0.2132   0.1982   0.4145

          k = 0.1000 0.0577 0.0000 ( 10387 PWs)   bands (ev):

   -13.8940  -5.9764  -4.9781  -4.3671  -0.5618  -0.1951   0.3051   0.5107

          k = 0.1125 0.0650 0.0000 ( 10394 PWs)   bands (ev):

   -13.8631  -5.9660  -5.1351  -4.4139  -0.5713  -0.1755   0.4445   0.6172

          k = 0.1250 0.0722 0.0000 ( 10398 PWs)   bands (ev):

   -13.8285  -5.9648  -5.2855  -4.4634  -0.6011  -0.1550   0.6081   0.7334

          k = 0.1375 0.0794 0.0000 ( 10400 PWs)   bands (ev):

   -13.7904  -5.9846  -5.4162  -4.5151  -0.6446  -0.1345   0.7880   0.8586

          k = 0.1500 0.0866 0.0000 ( 10408 PWs)   bands (ev):

   -13.7487  -6.0428  -5.5082  -4.5685  -0.6971  -0.1148   0.9782   0.9921

          k = 0.1625 0.0938 0.0000 ( 10386 PWs)   bands (ev):

   -13.7036  -6.1493  -5.5508  -4.6230  -0.7556  -0.0969   1.1333   1.1729

          k = 0.1750 0.1010 0.0000 ( 10390 PWs)   bands (ev):

   -13.6549  -6.2935  -5.5537  -4.6781  -0.8180  -0.0823   1.2817   1.3636

          k = 0.1875 0.1083 0.0000 ( 10388 PWs)   bands (ev):

   -13.6027  -6.4593  -5.5324  -4.7334  -0.8828  -0.0726   1.4367   1.5264

          k = 0.2000 0.1155 0.0000 ( 10396 PWs)   bands (ev):

   -13.5471  -6.6363  -5.4970  -4.7886  -0.9488  -0.0701   1.5976   1.6032

          k = 0.2125 0.1227 0.0000 ( 10376 PWs)   bands (ev):

   -13.4882  -6.8189  -5.4522  -4.8433  -1.0153  -0.0772   1.5886   1.7639

          k = 0.2250 0.1299 0.0000 ( 10372 PWs)   bands (ev):

   -13.4259  -7.0042  -5.4008  -4.8971  -1.0817  -0.0965   1.5445   1.9350

          k = 0.2375 0.1371 0.0000 ( 10382 PWs)   bands (ev):

   -13.3603  -7.1907  -5.3441  -4.9499  -1.1472  -0.1304   1.5008   2.1099

          k = 0.2500 0.1443 0.0000 ( 10388 PWs)   bands (ev):

   -13.2915  -7.3771  -5.2829  -5.0014  -1.2117  -0.1803   1.4685   2.2880

          k = 0.2625 0.1516 0.0000 ( 10384 PWs)   bands (ev):

   -13.2196  -7.5627  -5.2177  -5.0513  -1.2747  -0.2468   1.4519   2.3838

          k = 0.2750 0.1588 0.0000 ( 10394 PWs)   bands (ev):

   -13.1446  -7.7469  -5.1490  -5.0995  -1.3360  -0.3287   1.4526   2.4707

          k = 0.2875 0.1660 0.0000 ( 10392 PWs)   bands (ev):

   -13.0668  -7.9293  -5.1458  -5.0771  -1.3953  -0.4243   1.4698   2.5614

          k = 0.3000 0.1732 0.0000 ( 10390 PWs)   bands (ev):

   -12.9861  -8.1094  -5.1901  -5.0022  -1.4525  -0.5308   1.5021   2.6558

          k = 0.3125 0.1804 0.0000 ( 10390 PWs)   bands (ev):

   -12.9028  -8.2868  -5.2322  -4.9247  -1.5076  -0.6457   1.5477   2.7539

          k = 0.3250 0.1876 0.0000 ( 10408 PWs)   bands (ev):

   -12.8171  -8.4612  -5.2720  -4.8447  -1.5605  -0.7663   1.6045   2.8556

          k = 0.3375 0.1949 0.0000 ( 10416 PWs)   bands (ev):

   -12.7291  -8.6322  -5.3095  -4.7627  -1.6114  -0.8901   1.6710   2.9606

          k = 0.3500 0.2021 0.0000 ( 10418 PWs)   bands (ev):

   -12.6393  -8.7993  -5.3445  -4.6791  -1.6604  -1.0149   1.7457   3.0687

          k = 0.3625 0.2093 0.0000 ( 10402 PWs)   bands (ev):

   -12.5480  -8.9621  -5.3769  -4.5941  -1.7080  -1.1385   1.8271   3.1796

          k = 0.3750 0.2165 0.0000 ( 10416 PWs)   bands (ev):

   -12.4558  -9.1199  -5.4068  -4.5084  -1.7551  -1.2584   1.9144   3.2928

          k = 0.3875 0.2237 0.0000 ( 10424 PWs)   bands (ev):

   -12.3631  -9.2720  -5.4339  -4.4228  -1.8027  -1.3719   2.0062   3.4071

          k = 0.4000 0.2309 0.0000 ( 10418 PWs)   bands (ev):

   -12.2709  -9.4176  -5.4583  -4.3379  -1.8527  -1.4756   2.1017   3.5207

          k = 0.4125 0.2382 0.0000 ( 10436 PWs)   bands (ev):

   -12.1804  -9.5553  -5.4800  -4.2550  -1.9073  -1.5658   2.1995   3.6289

          k = 0.4250 0.2454 0.0000 ( 10418 PWs)   bands (ev):

   -12.0929  -9.6838  -5.4988  -4.1755  -1.9676  -1.6394   2.2983   3.7191

          k = 0.4375 0.2526 0.0000 ( 10410 PWs)   bands (ev):

   -12.0104  -9.8011  -5.5148  -4.1012  -2.0321  -1.6957   2.3962   3.7616

          k = 0.4500 0.2598 0.0000 ( 10434 PWs)   bands (ev):

   -11.9355  -9.9045  -5.5279  -4.0344  -2.0964  -1.7366   2.4904   3.7402

          k = 0.4625 0.2670 0.0000 ( 10438 PWs)   bands (ev):

   -11.8713  -9.9909  -5.5381  -3.9777  -2.1546  -1.7652   2.5767   3.6861

          k = 0.4750 0.2742 0.0000 ( 10430 PWs)   bands (ev):

   -11.8215 -10.0566  -5.5454  -3.9342  -2.2008  -1.7841   2.6490   3.6288

          k = 0.4875 0.2815 0.0000 ( 10438 PWs)   bands (ev):

   -11.7896 -10.0979  -5.5498  -3.9066  -2.2307  -1.7948   2.6986   3.5860

          k = 0.5000 0.2887 0.0000 ( 10434 PWs)   bands (ev):

   -11.7787 -10.1121  -5.5513  -3.8971  -2.2410  -1.7983   2.7165   3.5700

          k = 0.5083 0.2742 0.0000 ( 10414 PWs)   bands (ev):

   -11.7761 -10.1122  -5.5691  -3.8933  -2.2413  -1.7751   2.7120   3.5717

          k = 0.5167 0.2598 0.0000 ( 10422 PWs)   bands (ev):

   -11.7683 -10.1124  -5.6210  -3.8822  -2.2422  -1.7070   2.6974   3.5768

          k = 0.5250 0.2454 0.0000 ( 10422 PWs)   bands (ev):

   -11.7553 -10.1130  -5.7027  -3.8645  -2.2439  -1.5972   2.6685   3.5182

          k = 0.5333 0.2309 0.0000 ( 10436 PWs)   bands (ev):

   -11.7371 -10.1142  -5.8083  -3.8414  -2.2466  -1.4503   2.6190   3.4089

          k = 0.5417 0.2165 0.0000 ( 10424 PWs)   bands (ev):

   -11.7138 -10.1163  -5.9317  -3.8135  -2.2507  -1.2716   2.5428   3.3237

          k = 0.5500 0.2021 0.0000 ( 10446 PWs)   bands (ev):

   -11.6852 -10.1199  -6.0672  -3.7812  -2.2565  -1.0658   2.4392   3.2691

          k = 0.5583 0.1876 0.0000 ( 10438 PWs)   bands (ev):

   -11.6515 -10.1254  -6.2097  -3.7447  -2.2645  -0.8375   2.3142   3.2427

          k = 0.5667 0.1732 0.0000 ( 10442 PWs)   bands (ev):

   -11.6127 -10.1335  -6.3550  -3.7040  -2.2754  -0.5902   2.1767   3.2382

          k = 0.5750 0.1588 0.0000 ( 10420 PWs)   bands (ev):

   -11.5686 -10.1451  -6.4994  -3.6592  -2.2900  -0.3271   2.0349   3.2492

          k = 0.5833 0.1443 0.0000 ( 10412 PWs)   bands (ev):

   -11.5194 -10.1612  -6.6398  -3.6101  -2.3088  -0.0506   1.8947   3.2710

          k = 0.5917 0.1299 0.0000 ( 10398 PWs)   bands (ev):

   -11.4651 -10.1826  -6.7734  -3.5568  -2.3328   0.2372   1.7606   3.3002

          k = 0.6000 0.1155 0.0000 ( 10380 PWs)   bands (ev):

   -11.4056 -10.2104  -6.8979  -3.4990  -2.3627   0.5344   1.6355   3.3340

          k = 0.6083 0.1010 0.0000 ( 10396 PWs)   bands (ev):

   -11.3410 -10.2456  -7.0111  -3.4368  -2.3993   0.8395   1.5218   3.3696

          k = 0.6167 0.0866 0.0000 ( 10406 PWs)   bands (ev):

   -11.2713 -10.2892  -7.1113  -3.3702  -2.4433   1.1507   1.4213   3.4033

          k = 0.6250 0.0722 0.0000 ( 10408 PWs)   bands (ev):

   -11.1965 -10.3419  -7.1972  -3.2992  -2.4953   1.3352   1.4660   3.4304

          k = 0.6333 0.0577 0.0000 ( 10408 PWs)   bands (ev):

   -11.1167 -10.4042  -7.2676  -3.2236  -2.5555   1.2646   1.7829   3.4438

          k = 0.6417 0.0433 0.0000 ( 10398 PWs)   bands (ev):

   -11.0318 -10.4762  -7.3221  -3.1436  -2.6241   1.2097   2.0966   3.3860

          k = 0.6500 0.0289 0.0000 ( 10380 PWs)   bands (ev):

   -10.9418 -10.5578  -7.3605  -3.0593  -2.7009   1.1710   2.3968   3.2761

          k = 0.6583 0.0144 0.0000 ( 10390 PWs)   bands (ev):

   -10.8468 -10.6483  -7.3831  -2.9705  -2.7855   1.1480   2.6512   3.1907

          k = 0.6667 0.0000 0.0000 ( 10374 PWs)   bands (ev):

   -10.7470 -10.7468  -7.3904  -2.8775  -2.8773   1.1405   2.7586   3.2199

          k = 0.6471 0.0000 0.0000 ( 10390 PWs)   bands (ev):

   -10.8720 -10.6231  -7.3807  -2.9937  -2.7624   1.1505   2.6715   3.0763

          k = 0.6275 0.0000 0.0000 ( 10394 PWs)   bands (ev):

   -11.0053 -10.4923  -7.3528  -3.1175  -2.6416   1.1795   2.5166   2.9178

          k = 0.6078 0.0000 0.0000 ( 10402 PWs)   bands (ev):

   -11.1448 -10.3547  -7.3084  -3.2474  -2.5152   1.2259   2.3475   2.7523

          k = 0.5882 0.0000 0.0000 ( 10400 PWs)   bands (ev):

   -11.2888 -10.2103  -7.2492  -3.3818  -2.3833   1.2877   2.1760   2.5848

          k = 0.5686 0.0000 0.0000 ( 10404 PWs)   bands (ev):

   -11.4356 -10.0593  -7.1768  -3.5193  -2.2463   1.3627   2.0061   2.4189

          k = 0.5490 0.0000 0.0000 ( 10386 PWs)   bands (ev):

   -11.5839  -9.9017  -7.0927  -3.6585  -2.1043   1.4476   1.8398   2.2583

          k = 0.5294 0.0000 0.0000 ( 10398 PWs)   bands (ev):

   -11.7322  -9.7376  -6.9983  -3.7983  -1.9579   1.5359   1.6785   2.1092

          k = 0.5098 0.0000 0.0000 ( 10398 PWs)   bands (ev):

   -11.8797  -9.5670  -6.8948  -3.9377  -1.8073   1.5228   1.6081   1.9905

          k = 0.4902 0.0000 0.0000 ( 10408 PWs)   bands (ev):

   -12.0254  -9.3900  -6.7832  -4.0757  -1.6534   1.3735   1.6083   1.9571

          k = 0.4706 0.0000 0.0000 ( 10406 PWs)   bands (ev):

   -12.1686  -9.2068  -6.6646  -4.2116  -1.4967   1.2310   1.5161   2.0281

          k = 0.4510 0.0000 0.0000 ( 10390 PWs)   bands (ev):

   -12.3085  -9.0175  -6.5399  -4.3446  -1.3384   1.0957   1.3893   2.1437

          k = 0.4314 0.0000 0.0000 ( 10382 PWs)   bands (ev):

   -12.4448  -8.8221  -6.4100  -4.4742  -1.1796   0.9680   1.2554   2.0281

          k = 0.4118 0.0000 0.0000 ( 10374 PWs)   bands (ev):

   -12.5768  -8.6210  -6.2758  -4.5998  -1.0221   0.8482   1.1220   1.9068

          k = 0.3922 0.0000 0.0000 ( 10384 PWs)   bands (ev):

   -12.7043  -8.4142  -6.1380  -4.7210  -0.8681   0.7367   0.9916   1.7998

          k = 0.3725 0.0000 0.0000 ( 10390 PWs)   bands (ev):

   -12.8270  -8.2021  -5.9977  -4.8373  -0.7205   0.6336   0.8655   1.7098

          k = 0.3529 0.0000 0.0000 ( 10386 PWs)   bands (ev):

   -12.9444  -7.9848  -5.8557  -4.9484  -0.5827   0.5393   0.7442   1.6400

          k = 0.3333 0.0000 0.0000 ( 10400 PWs)   bands (ev):

   -13.0565  -7.7629  -5.7129  -5.0538  -0.4591   0.4537   0.6278   1.5942

          k = 0.3137 0.0000 0.0000 ( 10408 PWs)   bands (ev):

   -13.1629  -7.5368  -5.5703  -5.1531  -0.3538   0.3769   0.5166   1.5759

          k = 0.2941 0.0000 0.0000 ( 10406 PWs)   bands (ev):

   -13.2636  -7.3073  -5.4290  -5.2456  -0.2702   0.3083   0.4106   1.5878

          k = 0.2745 0.0000 0.0000 ( 10394 PWs)   bands (ev):

   -13.3583  -7.0753  -5.3306  -5.2899  -0.2095   0.2474   0.3095   1.6293

          k = 0.2549 0.0000 0.0000 ( 10386 PWs)   bands (ev):

   -13.4470  -6.8427  -5.4067  -5.1543  -0.1700   0.1934   0.2131   1.6960

          k = 0.2353 0.0000 0.0000 ( 10380 PWs)   bands (ev):

   -13.5294  -6.6124  -5.4714  -5.0233  -0.1476   0.1211   0.1455   1.7775

          k = 0.2157 0.0000 0.0000 ( 10400 PWs)   bands (ev):

   -13.6056  -6.3906  -5.5193  -4.8980  -0.1379   0.0327   0.1039   1.8555

          k = 0.1961 0.0000 0.0000 ( 10407 PWs)   bands (ev):

   -13.6754  -6.1913  -5.5372  -4.7796  -0.1374  -0.0531   0.0694   1.8133

          k = 0.1765 0.0000 0.0000 ( 10413 PWs)   bands (ev):

   -13.7388  -6.0438  -5.4972  -4.6691  -0.1444  -0.1379   0.0439   1.5153

          k = 0.1569 0.0000 0.0000 ( 10373 PWs)   bands (ev):

   -13.7956  -5.9742  -5.3749  -4.5676  -0.2241  -0.1579   0.0291   1.2138

          k = 0.1373 0.0000 0.0000 ( 10381 PWs)   bands (ev):

   -13.8459  -5.9622  -5.1931  -4.4762  -0.3152  -0.1765   0.0248   0.9352

          k = 0.1176 0.0000 0.0000 ( 10393 PWs)   bands (ev):

   -13.8896  -5.9741  -4.9886  -4.3954  -0.4153  -0.1976   0.0289   0.6890

          k = 0.0980 0.0000 0.0000 ( 10399 PWs)   bands (ev):

   -13.9266  -5.9932  -4.7829  -4.3262  -0.5277  -0.2185   0.0386   0.4837

          k = 0.0784 0.0000 0.0000 ( 10403 PWs)   bands (ev):

   -13.9569  -6.0126  -4.5892  -4.2689  -0.6509  -0.2375   0.0509   0.3248

          k = 0.0588 0.0000 0.0000 ( 10411 PWs)   bands (ev):

   -13.9805  -6.0293  -4.4189  -4.2240  -0.7753  -0.2532   0.0635   0.2115

          k = 0.0392 0.0000 0.0000 ( 10429 PWs)   bands (ev):

   -13.9974  -6.0418  -4.2839  -4.1918  -0.8842  -0.2649   0.0741   0.1376

          k = 0.0196 0.0000 0.0000 ( 10427 PWs)   bands (ev):

   -14.0075  -6.0496  -4.1963  -4.1724  -0.9591  -0.2721   0.0812   0.0965

          k = 0.0000 0.0000 0.0000 ( 10447 PWs)   bands (ev):

   -14.0109  -6.0522  -4.1659  -4.1658  -0.9859  -0.2745   0.0834   0.0837

     Writing all to output data dir ./silicene_bands.save/

     init_run     :      9.86s CPU      7.63s WALL (       1 calls)
     electrons    :    878.30s CPU    572.32s WALL (       1 calls)

     Called by init_run:
     wfcinit      :      0.00s CPU      0.00s WALL (       1 calls)
     potinit      :      2.24s CPU      1.62s WALL (       1 calls)
     hinit0       :      4.71s CPU      3.80s WALL (       1 calls)

     Called by electrons:
     c_bands      :    878.29s CPU    572.32s WALL (       1 calls)
     v_of_rho     :      0.53s CPU      0.34s WALL (       1 calls)
     newd         :      2.43s CPU      1.80s WALL (       1 calls)
     PAW_pot      :      0.43s CPU      0.23s WALL (       1 calls)

     Called by c_bands:
     init_us_2    :      0.52s CPU      0.40s WALL (      95 calls)
     init_us_2:cp :      0.52s CPU      0.40s WALL (      95 calls)
     cegterg      :    853.55s CPU    556.48s WALL (     341 calls)

     Called by *egterg:
     cdiaghg      :      1.96s CPU      1.17s WALL (    6123 calls)
     h_psi        :    655.57s CPU    417.52s WALL (    6464 calls)
     s_psi        :     24.25s CPU     16.29s WALL (    6464 calls)
     g_psi        :     19.90s CPU     14.21s WALL (    6028 calls)

     Called by h_psi:
     h_psi:calbec :     51.92s CPU     31.78s WALL (    6464 calls)
     vloc_psi     :    580.57s CPU    370.91s WALL (    6464 calls)
     add_vuspsi   :     13.66s CPU      8.11s WALL (    6464 calls)

     General routines
     calbec       :     51.88s CPU     31.75s WALL (    6464 calls)
     fft          :      1.89s CPU      1.30s WALL (      13 calls)
     ffts         :      1.20s CPU      1.00s WALL (       1 calls)
     fftw         :    528.41s CPU    337.30s WALL (   53478 calls)
     interpolate  :      1.23s CPU      1.02s WALL (       1 calls)
     davcio       :      0.33s CPU      0.27s WALL (     190 calls)

     Parallel routines

     PWSCF        :  14m49.76s CPU   9m41.82s WALL


   This run was terminated on:  12:17: 4  13Jul2023            

=------------------------------------------------------------------------------=
   JOB DONE.
=------------------------------------------------------------------------------=
