
     Program PWSCF v.7.0 starts on 13Jul2023 at 10:57:58 

     This program is part of the open-source Quantum ESPRESSO suite
     for quantum simulation of materials; please cite
         "P. Giannozzi et al., J. Phys.:Condens. Matter 21 395502 (2009);
         "P. Giannozzi et al., J. Phys.:Condens. Matter 29 465901 (2017);
         "P. Giannozzi et al., J. Chem. Phys. 152 154105 (2020);
          URL http://www.quantum-espresso.org", 
     in publications or presentations arising from this work. More details at
     http://www.quantum-espresso.org/quote

     Parallel version (MPI & OpenMP), running on       2 processor cores
     Number of MPI processes:                 1
     Threads/MPI process:                     2

     MPI processes distributed on     1 nodes
     87231 MiB available memory on the printing compute node when the environment starts

     Waiting for input...
     Reading input from standard input

     Current dimensions of program PWSCF are:
     Max number of different atomic species (ntypx) = 10
     Max number of k-points (npk) =  40000
     Max angular momentum in pseudopotentials (lmaxx) =  4

     Atomic positions and unit cell read from directory:
     ./silicene_dos.save/
     Atomic positions from file used, from input discarded

     file Si.pbe-n-kjpaw_psl.1.0.0.UPF: wavefunction(s)  3S 3P renormalized

     Subspace diagonalization in iterative solution of the eigenvalue problem:
     a serial algorithm will be used


     G-vector sticks info
     --------------------
     sticks:   dense  smooth     PW     G-vecs:    dense   smooth      PW
     Sum        1813     745    235               328517    83451   14669

     Using Slab Decomposition



     bravais-lattice index     =           -9
     lattice parameter (alat)  =       7.2962  a.u.
     unit-cell volume          =    1742.4604 (a.u.)^3
     number of atoms/cell      =            2
     number of atomic types    =            1
     number of electrons       =         8.00
     number of Kohn-Sham states=            8
     kinetic-energy cutoff     =      50.0000  Ry
     charge density cutoff     =     500.0000  Ry
     Exchange-correlation= SLA  PW   PBX  PBC
                           (   1   4   3   4   0   0   0)

     celldm(1)=   7.296200  celldm(2)=   1.732100  celldm(3)=   5.180000
     celldm(4)=   0.000000  celldm(5)=   0.000000  celldm(6)=   0.000000

     crystal axes: (cart. coord. in units of alat)
               a(1) = (   0.500000  -0.866050   0.000000 )  
               a(2) = (   0.500000   0.866050   0.000000 )  
               a(3) = (   0.000000   0.000000   5.180000 )  

     reciprocal axes: (cart. coord. in units 2 pi/alat)
               b(1) = (  1.000000 -0.577334  0.000000 )  
               b(2) = (  1.000000  0.577334 -0.000000 )  
               b(3) = ( -0.000000  0.000000  0.193050 )  


     PseudoPot. # 1 for Si read from file:
     ../pseudos/Si.pbe-n-kjpaw_psl.1.0.0.UPF
     MD5 check sum: c39c59da582df4a0d9f10159256ea34e
     Pseudo is Projector augmented-wave + core cor, Zval =  4.0
     Generated using &quot;atomic&quot; code by A. Dal Corso  v.6.3
     Shape of augmentation charge: PSQ
     Using radial grid of 1141 points,  6 beta functions with: 
                l(1) =   0
                l(2) =   0
                l(3) =   1
                l(4) =   1
                l(5) =   2
                l(6) =   2
     Q(r) pseudized with 0 coefficients 


     atomic species   valence    mass     pseudopotential
        Si             4.00    28.08550     Si( 1.00)

      2 Sym. Ops. (no inversion) found



   Cartesian axes

     site n.     atom                  positions (alat units)
         1           Si  tau(   1) = (   0.5000000  -0.2886833   2.0476077  )
         2           Si  tau(   2) = (   0.5000000   0.2886833   2.1611423  )

     number of k points=    43 (tetrahedron method)
                       cart. coord. in units 2pi/alat
        k(    1) = (   0.0000000   0.0000000   0.0000000), wk =   0.0138889
        k(    2) = (   0.0833333   0.0481112   0.0000000), wk =   0.0555556
        k(    3) = (   0.1666667   0.0962223   0.0000000), wk =   0.0555556
        k(    4) = (   0.2500000   0.1443335   0.0000000), wk =   0.0555556
        k(    5) = (   0.3333333   0.1924446   0.0000000), wk =   0.0555556
        k(    6) = (   0.4166667   0.2405558   0.0000000), wk =   0.0555556
        k(    7) = (  -0.5000000  -0.2886669   0.0000000), wk =   0.0277778
        k(    8) = (   0.1666667   0.0000000   0.0000000), wk =   0.0277778
        k(    9) = (   0.2500000   0.0481112   0.0000000), wk =   0.0555556
        k(   10) = (   0.3333333   0.0962223   0.0000000), wk =   0.0555556
        k(   11) = (   0.4166667   0.1443335   0.0000000), wk =   0.0555556
        k(   12) = (   0.5000000   0.1924446   0.0000000), wk =   0.0555556
        k(   13) = (  -0.4166667  -0.3367781   0.0000000), wk =   0.0555556
        k(   14) = (  -0.3333333  -0.2886669   0.0000000), wk =   0.0555556
        k(   15) = (  -0.2500000  -0.2405558   0.0000000), wk =   0.0555556
        k(   16) = (  -0.1666667  -0.1924446   0.0000000), wk =   0.0555556
        k(   17) = (  -0.0833333  -0.1443335   0.0000000), wk =   0.0555556
        k(   18) = (  -0.0000000  -0.0962223   0.0000000), wk =   0.0277778
        k(   19) = (   0.3333333   0.0000000   0.0000000), wk =   0.0277778
        k(   20) = (   0.4166667   0.0481112   0.0000000), wk =   0.0555556
        k(   21) = (   0.5000000   0.0962223   0.0000000), wk =   0.0555556
        k(   22) = (   0.5833333   0.1443335   0.0000000), wk =   0.0555556
        k(   23) = (  -0.3333333  -0.3848892   0.0000000), wk =   0.0555556
        k(   24) = (  -0.2500000  -0.3367781   0.0000000), wk =   0.0555556
        k(   25) = (  -0.1666667  -0.2886669   0.0000000), wk =   0.0555556
        k(   26) = (  -0.0833333  -0.2405558   0.0000000), wk =   0.0555556
        k(   27) = (   0.0000000  -0.1924446   0.0000000), wk =   0.0277778
        k(   28) = (   0.5000000   0.0000000   0.0000000), wk =   0.0277778
        k(   29) = (   0.5833333   0.0481112   0.0000000), wk =   0.0555556
        k(   30) = (   0.6666667   0.0962223   0.0000000), wk =   0.0555556
        k(   31) = (  -0.2500000  -0.4330004   0.0000000), wk =   0.0555556
        k(   32) = (  -0.1666667  -0.3848892   0.0000000), wk =   0.0555556
        k(   33) = (  -0.0833333  -0.3367781   0.0000000), wk =   0.0555556
        k(   34) = (   0.0000000  -0.2886669   0.0000000), wk =   0.0277778
        k(   35) = (   0.6666667   0.0000000   0.0000000), wk =   0.0277778
        k(   36) = (   0.7500000   0.0481112   0.0000000), wk =   0.0555556
        k(   37) = (  -0.1666667  -0.4811116   0.0000000), wk =   0.0555556
        k(   38) = (  -0.0833333  -0.4330004   0.0000000), wk =   0.0555556
        k(   39) = (   0.0000000  -0.3848892   0.0000000), wk =   0.0277778
        k(   40) = (   0.8333333   0.0000000   0.0000000), wk =   0.0277778
        k(   41) = (  -0.0833333  -0.5292227   0.0000000), wk =   0.0555556
        k(   42) = (   0.0000000  -0.4811116   0.0000000), wk =   0.0277778
        k(   43) = (  -1.0000000   0.0000000   0.0000000), wk =   0.0138889

     Dense  grid:   328517 G-vectors     FFT dimensions: (  54,  54, 270)

     Smooth grid:    83451 G-vectors     FFT dimensions: (  36,  36, 180)

     Estimated max dynamical RAM per process >       1.02 GB

     The potential is recalculated from file :
     ./silicene_dos.save/charge-density


     negative rho (up, down):  1.127E-05 0.000E+00
     Starting wfcs are    8 randomized atomic wfcs
     Checking if some PAW data can be deallocated... 

     Band Structure Calculation
     Davidson diagonalization with overlap
     c_bands:  1 eigenvalues not converged

     ethr =  1.25E-10,  avg # of iterations = 59.9

     total cpu time spent up to now is      255.4 secs

     End of band structure calculation

          k = 0.0000 0.0000 0.0000 ( 10447 PWs)   bands (ev):

   -14.0109  -6.0522  -4.1659  -4.1658  -0.9859  -0.2745   0.0834   0.0837

          k = 0.0833 0.0481 0.0000 ( 10389 PWs)   bands (ev):

   -13.9297  -5.9952  -4.7714  -4.3101  -0.5927  -0.2188   0.1709   0.3848

          k = 0.1667 0.0962 0.0000 ( 10390 PWs)   bands (ev):

   -13.6877  -6.1940  -5.5553  -4.6413  -0.7761  -0.0916   1.1820   1.2376

          k = 0.2500 0.1443 0.0000 ( 10388 PWs)   bands (ev):

   -13.2915  -7.3771  -5.2829  -5.0014  -1.2117  -0.1803   1.4685   2.2880

          k = 0.3333 0.1924 0.0000 ( 10420 PWs)   bands (ev):

   -12.7587  -8.5756  -5.2973  -4.7903  -1.5946  -0.8486   1.6479   2.9252

          k = 0.4167 0.2406 0.0000 ( 10436 PWs)   bands (ev):

   -12.1508  -9.5993  -5.4865  -4.2281  -1.9268  -1.5923   2.2324   3.6621

          k =-0.5000-0.2887 0.0000 ( 10434 PWs)   bands (ev):

   -11.7787 -10.1121  -5.5513  -3.8971  -2.2410  -1.7983   2.7165   3.5700

          k = 0.1667 0.0000 0.0000 ( 10395 PWs)   bands (ev):

   -13.7680  -5.9994  -5.4461  -4.6172  -0.1806  -0.1504   0.0352   1.3624

          k = 0.2500 0.0481 0.0000 ( 10384 PWs)   bands (ev):

   -13.4485  -6.8696  -5.4134  -5.0710  -0.5170  -0.0655   0.8707   1.6802

          k = 0.3333 0.0962 0.0000 ( 10409 PWs)   bands (ev):

   -12.9814  -8.0358  -5.4814  -4.9864  -0.9532  -0.4455   1.5305   2.1591

          k = 0.4167 0.1443 0.0000 ( 10412 PWs)   bands (ev):

   -12.3971  -9.1330  -5.7665  -4.4404  -1.4848  -1.0212   1.9725   2.9557

          k = 0.5000 0.1924 0.0000 ( 10424 PWs)   bands (ev):

   -11.8287  -9.9678  -5.9132  -3.9163  -2.1272  -1.2471   2.4721   3.1423

          k =-0.4167-0.3368 0.0000 ( 10424 PWs)   bands (ev):

   -11.8287  -9.9678  -5.9132  -3.9163  -2.1272  -1.2470   2.4720   3.1423

          k =-0.3333-0.2887 0.0000 ( 10412 PWs)   bands (ev):

   -12.3971  -9.1330  -5.7666  -4.4404  -1.4847  -1.0212   1.9725   2.9557

          k =-0.2500-0.2406 0.0000 ( 10407 PWs)   bands (ev):

   -12.9814  -8.0358  -5.4815  -4.9864  -0.9532  -0.4455   1.5305   2.1595

          k =-0.1667-0.1924 0.0000 ( 10384 PWs)   bands (ev):

   -13.4485  -6.8696  -5.4134  -5.0711  -0.5169  -0.0655   0.8711   1.6802

          k =-0.0833-0.1443 0.0000 ( 10395 PWs)   bands (ev):

   -13.7680  -5.9995  -5.4461  -4.6172  -0.1802  -0.1504   0.0351   1.3621

          k =-0.0000-0.0962 0.0000 ( 10389 PWs)   bands (ev):

   -13.9297  -5.9952  -4.7715  -4.3100  -0.5925  -0.2188   0.1705   0.3851

          k = 0.3333 0.0000 0.0000 ( 10400 PWs)   bands (ev):

   -13.0565  -7.7629  -5.7129  -5.0538  -0.4591   0.4537   0.6278   1.5942

          k = 0.4167 0.0481 0.0000 ( 10395 PWs)   bands (ev):

   -12.5276  -8.7378  -6.2293  -4.5539  -1.1124   0.2276   1.8186   1.9267

          k = 0.5000 0.0962 0.0000 ( 10403 PWs)   bands (ev):

   -11.9148  -9.6571  -6.5382  -3.9759  -1.8704   0.0215   1.9910   2.6504

          k = 0.5833 0.1443 0.0000 ( 10412 PWs)   bands (ev):

   -11.5194 -10.1612  -6.6398  -3.6101  -2.3088  -0.0506   1.8947   3.2710

          k =-0.3333-0.3849 0.0000 ( 10403 PWs)   bands (ev):

   -11.9149  -9.6571  -6.5383  -3.9760  -1.8703   0.0216   1.9910   2.6504

          k =-0.2500-0.3368 0.0000 ( 10395 PWs)   bands (ev):

   -12.5277  -8.7377  -6.2293  -4.5540  -1.1124   0.2278   1.8190   1.9267

          k =-0.1667-0.2887 0.0000 ( 10400 PWs)   bands (ev):

   -13.0565  -7.7629  -5.7129  -5.0538  -0.4591   0.4539   0.6283   1.5941

          k =-0.0833-0.2406 0.0000 ( 10384 PWs)   bands (ev):

   -13.4485  -6.8696  -5.4134  -5.0709  -0.5167  -0.0655   0.8709   1.6802

          k = 0.0000-0.1924 0.0000 ( 10390 PWs)   bands (ev):

   -13.6877  -6.1941  -5.5553  -4.6412  -0.7759  -0.0916   1.1822   1.2373

          k = 0.5000 0.0000 0.0000 ( 10410 PWs)   bands (ev):

   -11.9528  -9.4793  -6.8400  -4.0069  -1.7307   1.4473   1.6216   1.9587

          k = 0.5833 0.0481 0.0000 ( 10401 PWs)   bands (ev):

   -11.3460 -10.1799  -7.1575  -3.4370  -2.3505   1.3713   1.4880   3.1670

          k = 0.6667 0.0962 0.0000 ( 10401 PWs)   bands (ev):

   -11.3461 -10.1798  -7.1575  -3.4371  -2.3504   1.3713   1.4881   3.1675

          k =-0.2500-0.4330 0.0000 ( 10410 PWs)   bands (ev):

   -11.9530  -9.4792  -6.8400  -4.0070  -1.7307   1.4476   1.6218   1.9590

          k =-0.1667-0.3849 0.0000 ( 10395 PWs)   bands (ev):

   -12.5277  -8.7377  -6.2292  -4.5540  -1.1124   0.2281   1.8187   1.9266

          k =-0.0833-0.3368 0.0000 ( 10407 PWs)   bands (ev):

   -12.9814  -8.0359  -5.4813  -4.9864  -0.9529  -0.4455   1.5304   2.1593

          k = 0.0000-0.2887 0.0000 ( 10384 PWs)   bands (ev):

   -13.2915  -7.3771  -5.2829  -5.0012  -1.2115  -0.1804   1.4684   2.2881

          k = 0.6667 0.0000 0.0000 ( 10374 PWs)   bands (ev):

   -10.7470 -10.7468  -7.3904  -2.8775  -2.8773   1.1405   2.7586   3.2200

          k = 0.7500 0.0481 0.0000 ( 10403 PWs)   bands (ev):

   -11.3462 -10.1797  -7.1575  -3.4371  -2.3504   1.3714   1.4885   3.1671

          k =-0.1667-0.4811 0.0000 ( 10403 PWs)   bands (ev):

   -11.9150  -9.6571  -6.5381  -3.9760  -1.8703   0.0219   1.9911   2.6504

          k =-0.0833-0.4330 0.0000 ( 10412 PWs)   bands (ev):

   -12.3972  -9.1330  -5.7664  -4.4405  -1.4847  -1.0210   1.9724   2.9558

          k = 0.0000-0.3849 0.0000 ( 10420 PWs)   bands (ev):

   -12.7587  -8.5757  -5.2971  -4.7903  -1.5944  -0.8486   1.6478   2.9252

          k = 0.8333 0.0000 0.0000 ( 10412 PWs)   bands (ev):

   -11.5196 -10.1610  -6.6397  -3.6103  -2.3087  -0.0502   1.8948   3.2709

          k =-0.0833-0.5292 0.0000 ( 10424 PWs)   bands (ev):

   -11.8288  -9.9677  -5.9130  -3.9164  -2.1272  -1.2467   2.4720   3.1424

          k = 0.0000-0.4811 0.0000 ( 10436 PWs)   bands (ev):

   -12.1509  -9.5993  -5.4863  -4.2282  -1.9266  -1.5921   2.2324   3.6620

          k =-1.0000 0.0000 0.0000 ( 10434 PWs)   bands (ev):

   -11.7789 -10.1120  -5.5510  -3.8973  -2.2410  -1.7980   2.7164   3.5699

     the Fermi energy is    -2.8774 ev
     (compare with:    -2.8820 eV, computed in scf)

     Writing all to output data dir ./silicene_dos.save/

     init_run     :     10.36s CPU      8.05s WALL (       1 calls)
     electrons    :    390.99s CPU    246.93s WALL (       1 calls)

     Called by init_run:
     wfcinit      :      0.00s CPU      0.00s WALL (       1 calls)
     potinit      :      2.49s CPU      1.78s WALL (       1 calls)
     hinit0       :      5.10s CPU      4.43s WALL (       1 calls)

     Called by electrons:
     c_bands      :    390.97s CPU    246.92s WALL (       1 calls)
     v_of_rho     :      0.64s CPU      0.41s WALL (       1 calls)
     newd         :      2.35s CPU      1.48s WALL (       1 calls)
     PAW_pot      :      0.48s CPU      0.25s WALL (       1 calls)

     Called by c_bands:
     init_us_2    :      0.24s CPU      0.19s WALL (      43 calls)
     init_us_2:cp :      0.24s CPU      0.19s WALL (      43 calls)
     cegterg      :    378.87s CPU    239.24s WALL (     145 calls)

     Called by *egterg:
     cdiaghg      :      0.91s CPU      0.50s WALL (    2620 calls)
     h_psi        :    294.50s CPU    181.58s WALL (    2765 calls)
     s_psi        :     10.46s CPU      6.94s WALL (    2765 calls)
     g_psi        :      8.67s CPU      6.03s WALL (    2577 calls)

     Called by h_psi:
     h_psi:calbec :     22.54s CPU     13.30s WALL (    2765 calls)
     vloc_psi     :    262.16s CPU    162.16s WALL (    2765 calls)
     add_vuspsi   :      5.90s CPU      3.36s WALL (    2765 calls)

     General routines
     calbec       :     22.53s CPU     13.29s WALL (    2765 calls)
     fft          :      2.19s CPU      1.71s WALL (      13 calls)
     ffts         :      1.26s CPU      1.04s WALL (       1 calls)
     fftw         :    237.15s CPU    146.37s WALL (   23758 calls)
     interpolate  :      1.28s CPU      1.05s WALL (       1 calls)
     davcio       :      0.13s CPU      0.09s WALL (      86 calls)

     Parallel routines

     PWSCF        :   6m42.23s CPU   4m15.92s WALL


   This run was terminated on:  11: 2:13  13Jul2023            

=------------------------------------------------------------------------------=
   JOB DONE.
=------------------------------------------------------------------------------=
